<?xml version="1.0"?>
<VTKFile type="UnstructuredGrid"  version="0.1"  >
<UnstructuredGrid>
<Piece  NumberOfPoints="4075" NumberOfCells="20137">
<Points>
<DataArray  type="Float64"  NumberOfComponents="3"  format="ascii">27.5 37.5 37.5  27.5 37.5 38.75  27.5 36.25 38.75  26.25 36.25 38.75  27.5 37.5 40  27.5 35 40  27.5 36.25 40  26.25 37.5 38.75  27.5 38.75 38.75  27.5 38.75 37.5  26.25 38.75 38.75  27.5 40 37.5  27.5 40 38.75  27.5 40 40  27.5 38.75 40  27.5 38.75 41.25  26.25 38.75 41.25  27.5 40 41.25  27.5 40 42.5  27.5 37.5 41.25  27.5 37.5 42.5  27.5 38.75 42.5  26.25 40 41.25  27.5 41.25 41.25  27.5 41.25 40  26.25 41.25 41.25  27.5 42.5 40  27.5 42.5 41.25  27.5 42.5 42.5  27.5 41.25 42.5  45 37.5 35  45 37.5 36.25  45 36.25 36.25  43.75 36.25 36.25  45 37.5 37.5  45 35 37.5  45 36.25 37.5  42.5 35 37.5  43.75 36.25 37.5  43.75 35 37.5  42.5 37.5 35  43.75 37.5 36.25  43.75 37.5 35  47.5 37.5 35  47.5 37.5 36.25  47.5 36.25 36.25  46.25 36.25 36.25  47.5 37.5 37.5  47.5 35 37.5  47.5 36.25 37.5  46.25 36.25 37.5  46.25 35 37.5  46.25 37.5 36.25  46.25 37.5 37.5  50 37.5 35  50 37.5 36.25  50 36.25 36.25  48.75 36.25 36.25  50 37.5 37.5  50 35 37.5  50 36.25 37.5  48.75 36.25 37.5  48.75 35 37.5  48.75 37.5 36.25  48.75 37.5 35  48.75 37.5 37.5  42.5 35 38.75  42.5 33.75 38.75  41.25 33.75 38.75  42.5 35 40  42.5 32.5 37.5  42.5 32.5 38.75  42.5 32.5 40  42.5 33.75 40  43.75 35 38.75  43.75 33.75 38.75  45 35 38.75  45 35 40  43.75 33.75 40  43.75 35 40  47.5 35 38.75  46.25 35 38.75  46.25 33.75 38.75  47.5 35 40  48.75 35 38.75  48.75 33.75 38.75  46.25 36.25 38.75  47.5 36.25 38.75  47.5 37.5 38.75  47.5 37.5 40  47.5 36.25 40  48.75 36.25 38.75  50 36.25 38.75  50 37.5 38.75  50 37.5 40  50 35 38.75  50 35 40  50 36.25 40  48.75 36.25 40  48.75 35 40  48.75 37.5 38.75  48.75 37.5 40  45 35 41.25  45 33.75 41.25  43.75 33.75 41.25  45 35 42.5  47.5 35 41.25  47.5 33.75 41.25  46.25 33.75 41.25  47.5 35 42.5  46.25 35 41.25  46.25 35 40  46.25 35 42.5  48.75 35 41.25  48.75 33.75 41.25  50 35 41.25  50 35 42.5  48.75 35 42.5  48.75 33.75 42.5  30 37.5 32.5  30 38.75 33.75  30 37.5 33.75  28.75 38.75 33.75  30 37.5 35  30 38.75 35  30 40 35  27.5 37.5 35  28.75 38.75 35  28.75 37.5 35  27.5 38.75 35  27.5 38.75 33.75  27.5 40 35  28.75 40 35  32.5 37.5 32.5  32.5 38.75 33.75  32.5 38.75 32.5  31.25 38.75 33.75  32.5 40 32.5  32.5 40 33.75  32.5 40 35  32.5 37.5 33.75  32.5 37.5 35  32.5 38.75 35  31.25 38.75 35  31.25 37.5 35  31.25 40 35  35 40 32.5  35 40 33.75  35 38.75 33.75  33.75 38.75 33.75  35 40 35  35 37.5 35  35 38.75 35  33.75 38.75 35  33.75 37.5 35  33.75 40 33.75  33.75 40 32.5  33.75 40 35  37.5 40 32.5  37.5 40 33.75  37.5 38.75 33.75  36.25 38.75 33.75  37.5 38.75 32.5  36.25 38.75 32.5  37.5 40 35  37.5 37.5 35  37.5 38.75 35  36.25 38.75 35  36.25 37.5 35  36.25 40 33.75  36.25 40 32.5  36.25 40 35  40 40 32.5  40 40 33.75  40 38.75 33.75  38.75 38.75 33.75  40 38.75 32.5  38.75 38.75 32.5  40 40 35  40 37.5 35  40 38.75 35  38.75 38.75 35  38.75 40 33.75  38.75 40 32.5  38.75 40 35  42.5 37.5 32.5  42.5 38.75 33.75  42.5 37.5 33.75  41.25 38.75 33.75  42.5 38.75 35  42.5 40 35  41.25 38.75 35  41.25 37.5 35  41.25 40 35  41.25 40 33.75  43.75 38.75 35  43.75 38.75 33.75  45 38.75 35  45 40 35  43.75 40 35  33.75 41.25 33.75  35 41.25 33.75  35 41.25 35  35 42.5 35  33.75 41.25 35  36.25 41.25 33.75  37.5 41.25 33.75  37.5 41.25 35  37.5 42.5 35  36.25 41.25 35  36.25 42.5 35  38.75 41.25 33.75  40 41.25 33.75  40 41.25 35  40 42.5 35  38.75 41.25 35  38.75 42.5 35  41.25 41.25 33.75  41.25 41.25 35  42.5 41.25 35  42.5 42.5 35  41.25 42.5 35  30 37.5 36.25  30 36.25 36.25  28.75 36.25 36.25  30 37.5 37.5  30 35 37.5  30 36.25 37.5  28.75 36.25 37.5  28.75 37.5 36.25  28.75 37.5 37.5  27.5 37.5 36.25  32.5 37.5 36.25  32.5 36.25 36.25  31.25 36.25 36.25  32.5 37.5 37.5  32.5 35 37.5  32.5 36.25 37.5  31.25 36.25 37.5  31.25 35 37.5  31.25 37.5 36.25  31.25 37.5 37.5  35 37.5 36.25  35 36.25 36.25  33.75 36.25 36.25  35 37.5 37.5  35 35 37.5  35 36.25 37.5  33.75 36.25 37.5  33.75 35 37.5  33.75 37.5 36.25  33.75 37.5 37.5  37.5 37.5 36.25  37.5 36.25 36.25  36.25 36.25 36.25  37.5 37.5 37.5  37.5 35 37.5  37.5 36.25 37.5  36.25 36.25 37.5  36.25 35 37.5  36.25 37.5 36.25  36.25 37.5 37.5  40 37.5 36.25  40 36.25 36.25  38.75 36.25 36.25  40 37.5 37.5  40 35 37.5  40 36.25 37.5  38.75 36.25 37.5  38.75 35 37.5  38.75 37.5 36.25  38.75 37.5 37.5  42.5 37.5 36.25  42.5 36.25 36.25  41.25 36.25 36.25  42.5 37.5 37.5  42.5 36.25 37.5  41.25 36.25 37.5  41.25 37.5 36.25  41.25 37.5 37.5  43.75 37.5 37.5  28.75 38.75 36.25  30 38.75 36.25  30 40 36.25  30 40 37.5  30 38.75 37.5  28.75 38.75 37.5  28.75 40 36.25  27.5 38.75 36.25  28.75 40 37.5  27.5 40 36.25  31.25 38.75 36.25  32.5 38.75 36.25  32.5 40 36.25  32.5 40 37.5  32.5 38.75 37.5  31.25 38.75 37.5  31.25 40 36.25  31.25 40 37.5  33.75 38.75 36.25  35 38.75 36.25  35 40 36.25  35 40 37.5  35 38.75 37.5  33.75 38.75 37.5  33.75 40 36.25  33.75 40 37.5  36.25 38.75 36.25  37.5 38.75 36.25  37.5 40 36.25  37.5 40 37.5  37.5 38.75 37.5  36.25 38.75 37.5  36.25 40 36.25  36.25 40 37.5  40 38.75 36.25  38.75 38.75 36.25  40 40 36.25  40 40 37.5  40 38.75 37.5  38.75 38.75 37.5  38.75 40 36.25  38.75 40 37.5  41.25 38.75 36.25  42.5 38.75 36.25  42.5 40 36.25  42.5 40 37.5  42.5 38.75 37.5  41.25 38.75 37.5  41.25 40 36.25  41.25 40 37.5  43.75 38.75 36.25  45 38.75 36.25  45 40 36.25  45 40 37.5  45 38.75 37.5  43.75 38.75 37.5  43.75 40 36.25  43.75 40 37.5  47.5 38.75 36.25  47.5 38.75 35  46.25 38.75 36.25  46.25 38.75 35  47.5 40 35  47.5 40 36.25  47.5 40 37.5  47.5 38.75 37.5  46.25 38.75 37.5  46.25 40 36.25  46.25 40 35  46.25 40 37.5  48.75 38.75 36.25  48.75 38.75 35  50 38.75 36.25  50 38.75 35  50 40 35  50 40 36.25  50 40 37.5  50 38.75 37.5  48.75 38.75 37.5  48.75 40 36.25  48.75 40 35  48.75 40 37.5  28.75 41.25 36.25  28.75 41.25 35  30 41.25 36.25  30 41.25 35  30 42.5 35  30 42.5 36.25  30 42.5 37.5  30 41.25 37.5  28.75 41.25 37.5  27.5 42.5 35  28.75 42.5 36.25  28.75 42.5 35  27.5 41.25 37.5  27.5 42.5 37.5  28.75 42.5 37.5  31.25 41.25 36.25  31.25 41.25 35  32.5 41.25 36.25  32.5 41.25 35  32.5 42.5 35  32.5 42.5 36.25  32.5 42.5 37.5  32.5 41.25 37.5  31.25 41.25 37.5  31.25 42.5 36.25  31.25 42.5 35  31.25 42.5 37.5  33.75 41.25 36.25  35 41.25 36.25  35 42.5 36.25  35 42.5 37.5  35 41.25 37.5  33.75 41.25 37.5  33.75 42.5 36.25  33.75 42.5 35  33.75 42.5 37.5  36.25 41.25 36.25  37.5 41.25 36.25  37.5 42.5 36.25  37.5 42.5 37.5  37.5 41.25 37.5  36.25 41.25 37.5  36.25 42.5 36.25  36.25 42.5 37.5  38.75 41.25 36.25  40 41.25 36.25  40 42.5 36.25  40 42.5 37.5  40 41.25 37.5  38.75 41.25 37.5  38.75 42.5 36.25  38.75 42.5 37.5  41.25 41.25 36.25  42.5 41.25 36.25  42.5 42.5 36.25  42.5 42.5 37.5  42.5 41.25 37.5  41.25 41.25 37.5  41.25 42.5 36.25  41.25 42.5 37.5  43.75 41.25 36.25  43.75 41.25 35  45 41.25 36.25  45 41.25 35  45 42.5 35  45 42.5 36.25  45 42.5 37.5  45 41.25 37.5  43.75 41.25 37.5  43.75 42.5 36.25  43.75 42.5 35  43.75 42.5 37.5  46.25 41.25 36.25  46.25 41.25 35  47.5 41.25 36.25  47.5 41.25 35  47.5 42.5 35  47.5 42.5 36.25  47.5 42.5 37.5  47.5 41.25 37.5  46.25 41.25 37.5  46.25 42.5 36.25  46.25 42.5 35  46.25 42.5 37.5  48.75 41.25 36.25  48.75 41.25 35  50 41.25 36.25  50 41.25 35  50 42.5 35  50 42.5 36.25  50 42.5 37.5  50 41.25 37.5  48.75 41.25 37.5  48.75 42.5 36.25  48.75 42.5 35  48.75 42.5 37.5  28.75 43.75 36.25  28.75 43.75 35  30 43.75 36.25  30 43.75 35  30 45 35  30 45 36.25  30 45 37.5  30 43.75 37.5  28.75 43.75 37.5  27.5 43.75 35  27.5 45 35  28.75 45 36.25  28.75 45 35  31.25 43.75 36.25  31.25 43.75 35  32.5 43.75 36.25  32.5 43.75 35  32.5 45 35  32.5 45 36.25  32.5 45 37.5  32.5 43.75 37.5  31.25 43.75 37.5  31.25 45 36.25  31.25 45 35  31.25 45 37.5  33.75 43.75 36.25  33.75 43.75 35  35 43.75 36.25  35 43.75 35  35 45 35  35 45 36.25  35 45 37.5  35 43.75 37.5  33.75 43.75 37.5  33.75 45 36.25  33.75 45 35  33.75 45 37.5  36.25 43.75 36.25  36.25 43.75 35  37.5 43.75 36.25  37.5 43.75 35  37.5 45 35  37.5 45 36.25  37.5 45 37.5  37.5 43.75 37.5  36.25 43.75 37.5  36.25 45 36.25  36.25 45 35  36.25 45 37.5  38.75 43.75 36.25  38.75 43.75 35  40 43.75 36.25  40 43.75 35  40 45 35  40 45 36.25  40 45 37.5  40 43.75 37.5  38.75 43.75 37.5  38.75 45 36.25  38.75 45 35  38.75 45 37.5  41.25 43.75 36.25  41.25 43.75 35  42.5 43.75 36.25  42.5 43.75 35  42.5 45 35  42.5 45 36.25  42.5 45 37.5  42.5 43.75 37.5  41.25 43.75 37.5  41.25 45 36.25  41.25 45 35  41.25 45 37.5  43.75 43.75 36.25  43.75 43.75 35  45 43.75 36.25  45 43.75 35  45 45 35  45 45 36.25  45 45 37.5  45 43.75 37.5  43.75 43.75 37.5  43.75 45 36.25  43.75 45 35  43.75 45 37.5  46.25 43.75 36.25  46.25 43.75 35  47.5 43.75 36.25  47.5 43.75 35  47.5 45 35  47.5 45 36.25  47.5 45 37.5  47.5 43.75 37.5  46.25 43.75 37.5  46.25 45 36.25  46.25 45 35  46.25 45 37.5  48.75 43.75 36.25  48.75 43.75 35  50 43.75 36.25  50 43.75 35  50 45 35  50 45 36.25  50 45 37.5  50 43.75 37.5  48.75 43.75 37.5  48.75 45 36.25  48.75 45 35  48.75 45 37.5  28.75 46.25 36.25  28.75 46.25 35  30 46.25 36.25  30 46.25 35  30 47.5 35  30 47.5 36.25  30 47.5 37.5  30 46.25 37.5  28.75 46.25 37.5  28.75 47.5 36.25  27.5 47.5 37.5  28.75 47.5 37.5  31.25 46.25 36.25  31.25 46.25 35  32.5 46.25 36.25  32.5 46.25 35  32.5 47.5 35  32.5 47.5 36.25  32.5 47.5 37.5  32.5 46.25 37.5  31.25 46.25 37.5  31.25 47.5 36.25  31.25 47.5 35  31.25 47.5 37.5  33.75 46.25 36.25  33.75 46.25 35  35 46.25 36.25  35 46.25 35  35 47.5 35  35 47.5 36.25  35 47.5 37.5  35 46.25 37.5  33.75 46.25 37.5  33.75 47.5 36.25  33.75 47.5 35  33.75 47.5 37.5  36.25 46.25 36.25  36.25 46.25 35  37.5 46.25 36.25  37.5 46.25 35  37.5 47.5 35  37.5 47.5 36.25  37.5 47.5 37.5  37.5 46.25 37.5  36.25 46.25 37.5  36.25 47.5 36.25  36.25 47.5 35  36.25 47.5 37.5  38.75 46.25 36.25  38.75 46.25 35  40 46.25 36.25  40 46.25 35  40 47.5 35  40 47.5 36.25  40 47.5 37.5  40
[...]
<PointData  Scalars="p_CO2"> 
<DataArray  type="Float64"  Name="p_CO2"  format="ascii">4.5000000015364485e+01  4.5000000014452986e+01  4.5000000015545595e+01  4.5000000013999546e+01  4.5000000013537154e+01  4.5000000015172233e+01  4.5000000014390707e+01  4.5000000013104206e+01  4.5000000013393183e+01  4.5000000014258902e+01  4.5000000012144753e+01  4.5000000013029620e+01  4.5000000012300717e+01  4.5000000011482371e+01  4.5000000012547233e+01  4.5000000011588433e+01  4.5000000010434739e+01  4.5000000010503648e+01  4.5000000009490947e+01  4.5000000012424557e+01  4.5000000011059093e+01  4.5000000010361312e+01  4.5000000009599901e+01  4.5000000009429989e+01  4.5000000010326715e+01  4.5000000008576194e+01  4.5000000009107900e+01  4.5000000008334169e+01  4.5000000007495899e+01  4.5000000008548213e+01  4.5000000029726948e+01  4.5000000028276880e+01  4.5000000030890206e+01  4.5000000030891833e+01  4.5000000026658334e+01  4.5000000031564248e+01  4.5000000029115192e+01  4.5000000030924717e+01  4.5000000029057261e+01  4.5000000031356002e+01  4.5000000029667852e+01  4.5000000028345184e+01  4.5000000029884205e+01  4.5000000029984250e+01  4.5000000028416629e+01  4.5000000031086991e+01  4.5000000030926969e+01  4.5000000026743344e+01  4.5000000031594581e+01  4.5000000029176867e+01  4.5000000029123996e+01  4.5000000031602063e+01  4.5000000028177062e+01  4.5000000026648351e+01  4.5000000030899010e+01  4.5000000028903223e+01  4.5000000031515647e+01  4.5000000031320489e+01  4.5000000026989341e+01  4.5000000031594901e+01  4.5000000029317221e+01  4.5000000029267724e+01  4.5000000031625923e+01  4.5000000028737233e+01  4.5000000030503507e+01  4.5000000026916638e+01  4.5000000028735393e+01  4.5000000030443033e+01  4.5000000029927179e+01  4.5000000026273170e+01  4.5000000034233835e+01  4.5000000031835953e+01  4.5000000029177585e+01  4.5000000027865383e+01  4.5000000029025664e+01  4.5000000030860072e+01  4.5000000029333059e+01  4.5000000026709067e+01  4.5000000028234531e+01  4.5000000026536028e+01  4.5000000029291343e+01  4.5000000029298910e+01  4.5000000031304936e+01  4.5000000026774686e+01  4.5000000029212785e+01  4.5000000031428058e+01  4.5000000027075814e+01  4.5000000027087466e+01  4.5000000024916531e+01  4.5000000022880734e+01  4.5000000024804763e+01  4.5000000027074343e+01  4.5000000027090636e+01  4.5000000025037892e+01  4.5000000022878645e+01  4.5000000029176825e+01  4.5000000026588559e+01  4.5000000024712278e+01  4.5000000024748175e+01  4.5000000026705912e+01  4.5000000024993412e+01  4.5000000022893538e+01  4.5000000024007804e+01  4.5000000025568752e+01  4.5000000025359689e+01  4.5000000021169761e+01  4.5000000024028182e+01  4.5000000025812156e+01  4.5000000025705063e+01  4.5000000021119590e+01  4.5000000024064320e+01  4.5000000026773648e+01  4.5000000021221908e+01  4.5000000023895332e+01  4.5000000025788225e+01  4.5000000023709269e+01  4.5000000020499236e+01  4.5000000020874296e+01  4.5000000022550950e+01  4.5000000020384604e+01  4.5000000018604027e+01  4.5000000019978764e+01  4.5000000017353059e+01  4.5000000019439447e+01  4.5000000018025318e+01  4.5000000016448524e+01  4.5000000016649494e+01  4.5000000016771061e+01  4.5000000018108977e+01  4.5000000015529928e+01  4.5000000015993898e+01  4.5000000014165778e+01  4.5000000015346060e+01  4.5000000023409548e+01  4.5000000021268526e+01  4.5000000021891097e+01  4.5000000019991568e+01  4.5000000019847974e+01  4.5000000019333392e+01  4.5000000018671564e+01  4.5000000022967058e+01  4.5000000022305002e+01  4.5000000020542181e+01  4.5000000019297545e+01  4.5000000020885928e+01  4.5000000017582686e+01  4.5000000022068527e+01  4.5000000021434936e+01  4.5000000023766177e+01  4.5000000022570852e+01  4.5000000020636563e+01  4.5000000024851701e+01  4.5000000022790218e+01  4.5000000021731310e+01  4.5000000023601395e+01  4.5000000020439103e+01  4.5000000021038133e+01  4.5000000019721021e+01  4.5000000023691172e+01  4.5000000023043640e+01  4.5000000025442368e+01  4.5000000024613648e+01  4.5000000026127545e+01  4.5000000025235451e+01  4.5000000022198442e+01  4.5000000026723441e+01  4.5000000024517178e+01  4.5000000023715025e+01  4.5000000026019165e+01  4.5000000022283629e+01  4.5000000022928020e+01  4.5000000021475266e+01  4.5000000025181897e+01  4.5000000024479256e+01  4.5000000027184385e+01  4.5000000026226338e+01  4.5000000027820072e+01  4.5000000026975442e+01  4.5000000023539798e+01  4.5000000028401466e+01  4.5000000026040816e+01  4.5000000025419034e+01  4.5000000023772742e+01  4.5000000024466509e+01  4.5000000022917057e+01  4.5000000031682603e+01  4.5000000028170000e+01  4.5000000030848028e+01  4.5000000027767811e+01  4.5000000027041402e+01  4.5000000024315042e+01  4.5000000026665042e+01  4.5000000029224417e+01  4.5000000024066544e+01  4.5000000025039931e+01  4.5000000027098082e+01  4.5000000028304051e+01  4.5000000026925846e+01  4.5000000024145244e+01  4.5000000024329580e+01  4.5000000018254902e+01  4.5000000019136877e+01  4.5000000018455928e+01  4.5000000016175200e+01  4.5000000017641426e+01  4.5000000019881085e+01  4.5000000020588089e+01  4.5000000019846624e+01  4.5000000017371505e+01  4.5000000019181549e+01  4.5000000016812514e+01  4.5000000021224565e+01  4.5000000021832108e+01  4.5000000021011623e+01  4.5000000018349049e+01  4.5000000020465592e+01  4.5000000017918651e+01  4.5000000022266512e+01  4.5000000021419766e+01  4.5000000021603945e+01  4.5000000018794275e+01  4.5000000018682002e+01  4.5000000018704853e+01  4.5000000020025787e+01  4.5000000018479675e+01  4.5000000017817236e+01  4.5000000020132319e+01  4.5000000019055229e+01  4.5000000017748164e+01  4.5000000017379769e+01  4.5000000016596211e+01  4.5000000016042030e+01  4.5000000021323608e+01  4.5000000022867560e+01  4.5000000021454397e+01  4.5000000020243483e+01  4.5000000023082180e+01  4.5000000021708672e+01  4.5000000020390353e+01  4.5000000021657669e+01  4.5000000020018845e+01  4.5000000019059449e+01  4.5000000023673778e+01  4.5000000025418096e+01  4.5000000024140057e+01  4.5000000022408280e+01  4.5000000025805313e+01  4.5000000024131175e+01  4.5000000022958574e+01  4.5000000024484976e+01  4.5000000022552406e+01  4.5000000021396765e+01  4.5000000025538903e+01  4.5000000027656114e+01  4.5000000026596609e+01  4.5000000024144526e+01  4.5000000027864431e+01  4.5000000026094035e+01  4.5000000025179993e+01  4.5000000026991586e+01  4.5000000024673838e+01  4.5000000023353628e+01  4.5000000027105862e+01  4.5000000029317320e+01  4.5000000028402802e+01  4.5000000025564482e+01  4.5000000029669259e+01  4.5000000027703457e+01  4.5000000026921612e+01  4.5000000028866921e+01  4.5000000026384321e+01  4.5000000024903152e+01  4.5000000028210401e+01  4.5000000030692497e+01  4.5000000030108879e+01  4.5000000026521874e+01  4.5000000028845193e+01  4.5000000028476649e+01  4.5000000027772842e+01  4.5000000026167527e+01  4.5000000026681100e+01  4.5000000016092450e+01  4.5000000017316196e+01  4.5000000015833983e+01  4.5000000015076338e+01  4.5000000016499108e+01  4.5000000015367270e+01  4.5000000014760829e+01  4.5000000014890695e+01  4.5000000014069336e+01  4.5000000013616720e+01  4.5000000018493417e+01  4.5000000019676541e+01  4.5000000017913514e+01  4.5000000017017477e+01  4.5000000018702032e+01  4.5000000017618603e+01  4.5000000016883568e+01  4.5000000016077578e+01  4.5000000020752708e+01  4.5000000021767228e+01  4.5000000019747731e+01  4.5000000018713479e+01  4.5000000020627446e+01  4.5000000019714776e+01  4.5000000018876428e+01  4.5000000017929871e+01  4.5000000022616355e+01  4.5000000023413790e+01  4.5000000021216614e+01  4.5000000020060803e+01  4.5000000022147780e+01  4.5000000021435113e+01  4.5000000020517632e+01  4.5000000019442922e+01  4.5000000024813474e+01  4.5000000024159107e+01  4.5000000022436133e+01  4.5000000021120663e+01  4.5000000023381510e+01  4.5000000022800116e+01  4.5000000021862427e+01  4.5000000020643469e+01  4.5000000025337066e+01  4.5000000025686873e+01  4.5000000023116975e+01  4.5000000021716978e+01  4.5000000024152406e+01  4.5000000023857858e+01  4.5000000022878311e+01  4.5000000021514900e+01  4.5000000025729477e+01  4.5000000025615300e+01  4.5000000022967960e+01  4.5000000021682013e+01  4.5000000024190449e+01  4.5000000024242937e+01  4.5000000023117799e+01  4.5000000021770120e+01  4.5000000025702427e+01  4.5000000027069184e+01  4.5000000025455662e+01  4.5000000026732984e+01  4.5000000024195870e+01  4.5000000022976259e+01  4.5000000021729164e+01  4.5000000024266008e+01  4.5000000024150495e+01  4.5000000022858828e+01  4.5000000024026377e+01  4.5000000021630989e+01  4.5000000026033213e+01  4.5000000027559395e+01  4.5000000026203772e+01  4.5000000027823923e+01  4.5000000024762194e+01  4.5000000023411580e+01  4.5000000022018128e+01  4.5000000024593561e+01  4.5000000024480485e+01  4.5000000023252937e+01  4.5000000024569246e+01  4.5000000021930390e+01  4.5000000013369629e+01  4.5000000013863392e+01  4.5000000014258120e+01  4.5000000014819008e+01  4.5000000013067897e+01  4.5000000012597006e+01  4.5000000011973242e+01  4.5000000013579765e+01  4.5000000012693555e+01  4.5000000011238150e+01  4.5000000011894407e+01  4.5000000012209810e+01  4.5000000011740070e+01  4.5000000010337388e+01  4.5000000011229410e+01  4.5000000015164851e+01  4.5000000015788764e+01  4.5000000016065115e+01  4.5000000016739968e+01  4.5000000014727007e+01  4.5000000014132510e+01  4.5000000013409128e+01  4.5000000015267801e+01  4.5000000014434910e+01  4.5000000013372620e+01  4.5000000013917578e+01  4.5000000012715120e+01  4.5000000016885856e+01  4.5000000017658699e+01  4.5000000015489839e+01  4.5000000014671500e+01  4.5000000016745915e+01  4.5000000016045639e+01  4.5000000014844403e+01  4.5000000015500881e+01  4.5000000014084272e+01  4.5000000018320598e+01  4.5000000018958978e+01  4.5000000016613669e+01  4.5000000015713617e+01  4.5000000017936870e+01  4.5000000017374717e+01  4.5000000016072015e+01  4.5000000015232054e+01  4.5000000019511134e+01  4.5000000020008500e+01  4.5000000017486428e+01  4.5000000016463808e+01  4.5000000018840367e+01  4.5000000018433830e+01  4.5000000017092098e+01  4.5000000016154154e+01  4.5000000020334689e+01  4.5000000020515536e+01  4.5000000017854610e+01  4.5000000016764766e+01  4.5000000019277877e+01  4.5000000019131711e+01  4.5000000017747134e+01  4.5000000016691949e+01  4.5000000020464732e+01  4.5000000021555785e+01  4.5000000020310360e+01  4.5000000021370553e+01  4.5000000018577090e+01  4.5000000017646158e+01  4.5000000016622856e+01  4.5000000019165917e+01  4.5000000019273109e+01  4.5000000017798257e+01  4.5000000018750669e+01  4.5000000016742135e+01  4.5000000020188146e+01  4.5000000021230541e+01  4.5000000020242979e+01  4.5000000021306477e+01  4.5000000018468057e+01  4.5000000017535143e+01  4.5000000016527530e+01  4.5000000019128649e+01  4.5000000019080844e+01  4.5000000017522829e+01  4.5000000018443544e+01  4.5000000016520481e+01  4.5000000020448660e+01  4.5000000021560332e+01  4.5000000020562560e+01  4.5000000021714541e+01  4.5000000018713621e+01  4.5000000017760513e+01  4.5000000016688276e+01  4.5000000019382576e+01  4.5000000019289196e+01  4.5000000017673592e+01  4.5000000018619339e+01  4.5000000016628711e+01  4.5000000010218514e+01  4.5000000010501836e+01  4.5000000010838406e+01  4.5000000011251750e+01  4.5000000009322861e+01  4.5000000008989097e+01  4.5000000008543651e+01  4.5000000010317876e+01  4.5000000009730648e+01  4.5000000009674075e+01  4.5000000007994956e+01  4.5000000008451771e+01  4.5000000008711226e+01  4.5000000011483515e+01  4.5000000011968503e+01  4.5000000012129917e+01  4.5000000012651405e+01  4.5000000010451998e+01  4.5000000010031989e+01  4.5000000009486229e+01  4.5000000011494173e+01  4.5000000010909076e+01  4.5000000009520043e+01  4.5000000009915119e+01  4.5000000009021427e+01  4.5000000012706167e+01  4.5000000013275688e+01  4.5000000013241234e+01  4.5000000013837656e+01  4.5000000011373828e+01  4.5000000010904088e+01  4.5000000010324307e+01  4.5000000012549584e+01  4.5000000012047146e+01  4.5000000010495270e+01  4.5000000010959553e+01  4.5000000009936215e+01  4.5000000013711137e+01  4.5000000014338774e+01  4.5000000014161884e+01  4.5000000014799895e+01  4.5000000012089643e+01  4.5000000011591027e+01  4.5000000010999891e+01  4.5000000013420049e+01  4.5000000013007757e+01  4.5000000011265676e+01  4.5000000011760143e+01  4.5000000010693597e+01  4.5000000014536909e+01  4.5000000015226831e+01  4.5000000014849945e+01  4.5000000015576589e+01  4.5000000012654503e+01  4.5000000012085955e+01  4.5000000011430963e+01  4.5000000014015164e+01  4.5000000013766339e+01  4.5000000011870561e+01  4.5000000012407824e+01  4.5000000011266309e+01  4.5000000015028483e+01  4.5000000015818316e+01  4.5000000015109762e+01  4.5000000015914701e+01  4.5000000012921866e+01  4.5000000012284552e+01  4.5000000011566179e+01  4.5000000014208332e+01  4.5000000014160406e+01  4.5000000012222372e+01  4.5000000012843699e+01  4.5000000011538823e+01  4.5000000015063222e+01  4.5000000015880254e+01  4.5000000014960726e+01  4.5000000015764414e+01  4.5000000012894915e+01  4.5000000012237464e+01  4.5000000011492865e+01  4.5000000014072498e+01  4.5000000014171306e+01  4.5000000012280736e+01  4.5000000012939623e+01  4.5000000011554363e+01  4.5000000014868903e+01  4.5000000015667773e+01  4.5000000014882545e+01  4.5000000015682829e+01  4.5000000012936937e+01  4.5000000012258468e+01  4.5000000011426920e+01  4.5000000013954590e+01  4.5000000013973917e+01  4.5000000012210656e+01  4.5000000012879731e+01  4.5000000011430828e+01  4.5000000014991095e+01  4.5000000015795699e+01  4.5000000015051995e+01  4.5000000015865623e+01  4.5000000013093278e+01  4.5000000012423705e+01  4.5000000011512938e+01  4.5000000014068732e+01  4.5000000014019101e+01  4.5000000012366677e+01  4.5000000013053310e+01  4.5000000011482967e+01  4.5000000006577253e+01  4.5000000006869151e+01  4.5000000007029520e+01  4.5000000007317183e+01  4.5000000005217267e+01  4.5000000004971128e+01  4.5000000004685894e+01  4.5000000006662425e+01  4.5000000006245315e+01  4.5000000004638473e+01  4.5000000003986244e+01  4.5000000004377377e+01  4.5000000007433776e+01  4.5000000007754892e+01  4.5000000007830785e+01  4.5000000008166666e+01  4.5000000005749925e+01  4.5000000005523631e+01  4.5000000005214176e+01  4.5000000007402484e+01  4.5000000007042196e+01  4.5000000005256524e+01  4.5000000005479350e+01  4.5000000004967099e+01  4.5000000008168968e+01  4.5000000008529788e+01  4.5000000008471822e+01  4.5000000008832529e+01  4.5000000006187960e+01  4.5000000005945431e+01  4.5000000005637560e+01  4.5000000008030050e+01  4.5000000007735309e+01  4.5000000005755510e+01  4.5000000005999929e+01  4.5000000005448939e+01  4.5000000008710991e+01  4.5000000009086612e+01  4.5000000008930954e+01  4.5000000009304038e+01  4.5000000006461676e+01  4.5000000006213781e+01  4.5000000005924768e+01  4.5000000008501274e+01  4.5000000008286285e+01  4.5000000006094616e+01  4.5000000006344273e+01  4.5000000005802974e+01  4.5000000009103623e+01  4.5000000009503431e+01  4.5000000009248197e+01  4.5000000009671297e+01  4.5000000006671485e+01  4.5000000006390543e+01  4.5000000006089643e+01  4.5000000008783907e+01  4.5000000008670654e+01  4.5000000006310707e+01  4.5000000006572165e+01  4.5000000006026376e+01  4.5000000009341043e+01  4.5000000009804729e+01  4.5000000009407962e+01  4.5000000009891757e+01  4.5000000006845276e+01  4.5000000006519628e+01  4.5000000006172485e+01  4.5000000008883930e+01  4.5000000008850293e+01  4.5000000006457761e+01  4.5000000006763095e+01  4.5000000006136865e+01  4.5000000009442786e+01  4.5000000009944237e+01  4.5000000009465040e+01  4.5000000009978635e+01  4.5000000006991009e+01  4.5000000006631190e+01  4.5000000006213433e+01  4.5000000008877819e+01  4.5000000008893650e+01  4.5000000006574638e+01  4.5000000006919336e+01  4.5000000006198270e+01  4.5000000009503637e+01  4.5000000010037610e+01  4.5000000009604761e+01  4.5000000010148014e+01  4.5000000007214496e+01  4.5000000006820962e+01  4.5000000006279713e+01  4.5000000008889742e+01  4.5000000008862983e+01  4.5000000006709122e+01  4.5000000007093099e+01  4.5000000006235304e+01  4.5000000009718583e+01  4.5000000010277489e+01  4.5000000009774801e+01  4.5000000010336208e+01  4.5000000007379931e+01  4.5000000007005220e+01  4.5000000006374314e+01  4.5000000008994505e+01  4.5000000008955602e+01  4.5000000006944767e+01  4.5000000007355823e+01  4.5000000006354099e+01  4.5000000002813870e+01  4.5000000002936368e+01  4.5000000002619295e+01  4.5000000002727923e+01  4.5000000000605226e+01  4.5000000000588209e+01  4.5000000000550862e+01  4.5000000002659938e+01  4.5000000002485457e+01  4.5000000000512657e+01  4.5000000000548269e+01  4.5000000000569607e+01  4.5000000000516714e+01  4.5000000002974410e+01  4.5000000003103345e+01  4.5000000003128662e+01  4.5000000003258840e+01  4.5000000000673367e+01  4.5000000000655078e+01  4.5000000000611166e+01  4.5000000002957407e+01  4.5000000002815064e+01  4.5000000000624993e+01  4.5000000000650338e+01  4.5000000000588919e+01  4.5000000003249049e+01  4.5000000003389118e+01  4.5000000003355183e+01  4.5000000003492239e+01  4.5000000000721954e+01  4.5000000000701341e+01  4.5000000000659035e+01  4.5000000003186479e+01  4.5000000003081574e+01  4.5000000000681290e+01  4.5000000000709257e+01  4.5000000000645542e+01  4.5000000003423168e+01  4.5000000003561716e+01  4.5000000003479187e+01  4.5000000003616222e+01  4.5000000000750688e+01  4.5000000000725571e+01  4.5000000000689717e+01  4.5000000003327592e+01  4.5000000003265249e+01  4.5000000000715879e+01  4.5000000000744478e+01  4.5000000000682761e+01  4.5000000003519837e+01  4.5000000003660858e+01  4.5000000003557403e+01  4.5000000003711627e+01  4.5000000000771372e+01  4.5000000000742240e+01  4.5000000000707296e+01  4.5000000003402668e+01  4.5000000003370474e+01  4.5000000000733486e+01  4.5000000000763578e+01  4.5000000000702926e+01  4.5000000003598814e+01  4.5000000003761976e+01  4.5000000003642931e+01  4.5000000003821498e+01  4.5000000000794358e+01  4.5000000000760281e+01  4.5000000000719304e+01  4.5000000003457473e+01  4.5000000003428930e+01  4.5000000000750958e+01  4.5000000000784212e+01  4.5000000000715929e+01  4.5000000003688498e+01  4.5000000003877012e+01  4.5000000003741171e+01  4.5000000003944116e+01  4.5000000000819718e+01  4.5000000000781768e+01  4.5000000000729955e+01  4.5000000003502699e+01  4.5000000003480743e+01  4.5000000000770875e+01  4.5000000000810118e+01  4.5000000000728107e+01  4.5000000003802633e+01  4.5000000004024329e+01  4.5000000003890712e+01  4.5000000004122874e+01  4.5000000000853071e+01  4.5000000000815952e+01  4.5000000000742347e+01  4.5000000003569063e+01  4.5000000003527433e+01  4.5000000000797883e+01  4.5000000000843258e+01  4.5000000000739099e+01  4.5000000003970293e+01  4.5000000004011596e+01  4.5000000003651323e+01  4.5000000000758824e+01  4.5000000003620684e+01  4.5000000000760913e+01  4.5000000000837289e+01  4.5000000019028960e+01  4.5000000020069436e+01  4.5000000018399362e+01  4.5000000017705517e+01  4.5000000017702277e+01  4.5000000016457264e+01  4.5000000021683398e+01  4.5000000022791276e+01  4.5000000021436662e+01  4.5000000020165352e+01  4.5000000020375566e+01  4.5000000018898227e+01  4.5000000019701965e+01  4.5000000024126926e+01  4.5000000025613055e+01  4.5000000024157465e+01  4.5000000022355465e+01  4.5000000022935978e+01  4.5000000021254031e+01  4.5000000026108140e+01  4.5000000027735247e+01  4.5000000026648600e+01  4.5000000024124176e+01  4.5000000025180682e+01  4.5000000023253733e+01  4.5000000027698057e+01  4.5000000029357700e+01  4.5000000028484855e+01  4.5000000025505656e+01  4.5000000026942622e+01  4.5000000024943979e+01  4.5000000027516940e+01  4.5000000028385614e+01  4.5000000025962436e+01  4.5000000017979282e+01  4.5000000016831450e+01  4.5000000016825467e+01  4.5000000015679561e+01  4.5000000016747379e+01  4.5000000015582309e+01  4.5000000015659964e+01  4.5000000014625577e+01  4.5000000019198978e+01  4.5000000020419201e+01  4.5000000019064110e+01  4.5000000017706157e+01  4.5000000018955497e+01  4.5000000017884048e+01  4.5000000017960552e+01  4.500000001673917