<?xml version="1.0"?>
<VTKFile type="UnstructuredGrid"  version="0.1"  >
<UnstructuredGrid>
<Piece  NumberOfPoints="3850" NumberOfCells="18761">
<Points>
<DataArray  type="Float64"  NumberOfComponents="3"  format="ascii">0 15 25  1.25 16.25 26.25  1.25 16.25 25  0 16.25 25  0 17.5 25  1.25 17.5 26.25  1.25 17.5 25  2.5 17.5 25  0 16.25 26.25  0 17.5 26.25  0 17.5 27.5  2.5 15 25  3.75 16.25 26.25  3.75 16.25 25  3.75 15 25  5 15 25  5 16.25 26.25  5 16.25 25  5 17.5 25  2.5 16.25 25  3.75 17.5 26.25  3.75 17.5 25  6.25 16.25 26.25  6.25 16.25 25  6.25 15 25  7.5 15 25  7.5 16.25 25  7.5 17.5 25  6.25 17.5 25  1.25 18.75 26.25  1.25 18.75 25  2.5 18.75 26.25  2.5 18.75 25  2.5 20 25  0 18.75 25  0 20 25  1.25 20 25  0 18.75 26.25  3.75 18.75 26.25  3.75 18.75 25  5 18.75 25  5 20 25  3.75 20 25  3.75 21.25 26.25  3.75 21.25 25  5 21.25 25  5 22.5 25  2.5 21.25 25  2.5 22.5 25  3.75 22.5 26.25  3.75 22.5 25  3.75 23.75 26.25  3.75 23.75 25  5 23.75 25  5 25 25  0 10 0  1.25 11.25 1.25  1.25 11.25 0  0 11.25 0  0 12.5 0  1.25 12.5 1.25  1.25 12.5 0  2.5 12.5 0  2.5 12.5 1.25  2.5 12.5 2.5  0 12.5 2.5  1.25 12.5 2.5  1.25 11.25 2.5  0 11.25 2.5  0 11.25 1.25  0 12.5 1.25  5 12.5 0  5 12.5 1.25  5 11.25 1.25  3.75 11.25 1.25  5 11.25 0  3.75 11.25 0  5 12.5 2.5  5 11.25 2.5  3.75 11.25 2.5  3.75 12.5 1.25  3.75 12.5 0  3.75 12.5 2.5  7.5 12.5 0  7.5 12.5 1.25  7.5 11.25 1.25  6.25 11.25 1.25  7.5 11.25 0  6.25 11.25 0  7.5 12.5 2.5  7.5 11.25 2.5  6.25 11.25 2.5  6.25 12.5 1.25  6.25 12.5 0  6.25 12.5 2.5  10 10 0  10 11.25 1.25  10 11.25 0  8.75 11.25 1.25  8.75 11.25 0  10 12.5 0  10 12.5 1.25  10 12.5 2.5  10 10 1.25  10 10 2.5  10 11.25 2.5  8.75 11.25 2.5  8.75 12.5 1.25  8.75 12.5 0  8.75 12.5 2.5  1.25 13.75 1.25  1.25 13.75 0  2.5 13.75 1.25  2.5 13.75 0  2.5 15 0  2.5 15 1.25  2.5 15 2.5  2.5 13.75 2.5  1.25 13.75 2.5  0 13.75 0  0 15 0  1.25 15 1.25  1.25 15 0  0 13.75 1.25  0 13.75 2.5  0 15 2.5  1.25 15 2.5  0 15 1.25  3.75 13.75 1.25  3.75 13.75 0  5 13.75 1.25  5 13.75 0  5 15 0  5 15 1.25  5 15 2.5  5 13.75 2.5  3.75 13.75 2.5  3.75 15 1.25  3.75 15 0  3.75 15 2.5  6.25 13.75 1.25  6.25 13.75 0  7.5 13.75 1.25  7.5 13.75 0  7.5 15 0  7.5 15 1.25  7.5 15 2.5  7.5 13.75 2.5  6.25 13.75 2.5  6.25 15 1.25  6.25 15 0  6.25 15 2.5  8.75 13.75 1.25  8.75 13.75 0  10 13.75 1.25  10 13.75 0  10 15 0  10 15 1.25  10 15 2.5  10 13.75 2.5  8.75 13.75 2.5  8.75 15 1.25  8.75 15 0  8.75 15 2.5  3.75 16.25 1.25  3.75 16.25 0  5 16.25 1.25  5 16.25 0  5 17.5 0  5 17.5 1.25  5 17.5 2.5  5 16.25 2.5  3.75 16.25 2.5  6.25 16.25 1.25  6.25 16.25 0  7.5 16.25 1.25  7.5 16.25 0  7.5 17.5 0  7.5 17.5 1.25  7.5 17.5 2.5  7.5 16.25 2.5  6.25 16.25 2.5  6.25 17.5 1.25  6.25 17.5 0  6.25 17.5 2.5  8.75 16.25 1.25  8.75 16.25 0  10 16.25 1.25  10 16.25 0  10 17.5 0  10 17.5 1.25  10 17.5 2.5  10 16.25 2.5  8.75 16.25 2.5  8.75 17.5 1.25  8.75 17.5 0  8.75 17.5 2.5  1.25 12.5 3.75  1.25 11.25 3.75  2.5 12.5 3.75  2.5 12.5 5  0 12.5 3.75  0 11.25 3.75  0 12.5 5  1.25 12.5 5  5 12.5 3.75  5 11.25 3.75  3.75 11.25 3.75  5 12.5 5  5 11.25 5  3.75 11.25 5  3.75 12.5 3.75  3.75 12.5 5  7.5 12.5 3.75  7.5 11.25 3.75  6.25 11.25 3.75  7.5 12.5 5  7.5 11.25 5  6.25 11.25 5  6.25 12.5 3.75  6.25 12.5 5  10 11.25 3.75  8.75 11.25 3.75  10 12.5 3.75  10 12.5 5  10 10 3.75  10 10 5  10 11.25 5  8.75 11.25 5  8.75 12.5 3.75  8.75 12.5 5  1.25 13.75 3.75  2.5 13.75 3.75  2.5 15 3.75  2.5 15 5  2.5 13.75 5  1.25 13.75 5  1.25 15 3.75  0 13.75 3.75  0 13.75 5  0 15 5  1.25 15 5  0 15 3.75  3.75 13.75 3.75  5 13.75 3.75  5 15 3.75  5 15 5  5 13.75 5  3.75 13.75 5  3.75 15 3.75  3.75 15 5  6.25 13.75 3.75  7.5 13.75 3.75  7.5 15 3.75  7.5 15 5  7.5 13.75 5  6.25 13.75 5  6.25 15 3.75  6.25 15 5  8.75 13.75 3.75  10 13.75 3.75  10 15 3.75  10 15 5  10 13.75 5  8.75 13.75 5  8.75 15 3.75  8.75 15 5  1.25 16.25 3.75  2.5 16.25 3.75  2.5 16.25 5  2.5 17.5 5  1.25 16.25 5  0 16.25 3.75  0 16.25 5  0 17.5 5  1.25 17.5 5  3.75 16.25 3.75  5 16.25 3.75  5 17.5 3.75  5 17.5 5  5 16.25 5  3.75 16.25 5  3.75 17.5 5  6.25 16.25 3.75  7.5 16.25 3.75  7.5 17.5 3.75  7.5 17.5 5  7.5 16.25 5  6.25 16.25 5  6.25 17.5 3.75  6.25 17.5 5  8.75 16.25 3.75  10 16.25 3.75  10 17.5 3.75  10 17.5 5  10 16.25 5  8.75 16.25 5  8.75 17.5 3.75  8.75 17.5 5  2.5 12.5 6.25  2.5 11.25 6.25  1.25 11.25 6.25  2.5 12.5 7.5  1.25 12.5 6.25  0 12.5 6.25  0 12.5 7.5  1.25 12.5 7.5  5 12.5 6.25  5 11.25 6.25  3.75 11.25 6.25  5 12.5 7.5  5 11.25 7.5  3.75 11.25 7.5  3.75 12.5 6.25  3.75 12.5 7.5  7.5 12.5 6.25  7.5 11.25 6.25  6.25 11.25 6.25  7.5 12.5 7.5  7.5 11.25 7.5  6.25 11.25 7.5  6.25 12.5 6.25  6.25 12.5 7.5  10 11.25 6.25  8.75 11.25 6.25  10 12.5 6.25  10 12.5 7.5  10 10 6.25  10 10 7.5  10 11.25 7.5  8.75 11.25 7.5  8.75 12.5 6.25  8.75 12.5 7.5  1.25 13.75 6.25  2.5 13.75 6.25  2.5 15 6.25  2.5 15 7.5  2.5 13.75 7.5  1.25 13.75 7.5  1.25 15 6.25  0 13.75 6.25  0 13.75 7.5  0 15 7.5  1.25 15 7.5  0 15 6.25  3.75 13.75 6.25  5 13.75 6.25  5 15 6.25  5 15 7.5  5 13.75 7.5  3.75 13.75 7.5  3.75 15 6.25  3.75 15 7.5  6.25 13.75 6.25  7.5 13.75 6.25  7.5 15 6.25  7.5 15 7.5  7.5 13.75 7.5  6.25 13.75 7.5  6.25 15 6.25  6.25 15 7.5  8.75 13.75 6.25  10 13.75 6.25  10 15 6.25  10 15 7.5  10 13.75 7.5  8.75 13.75 7.5  8.75 15 6.25  8.75 15 7.5  1.25 16.25 6.25  2.5 16.25 6.25  2.5 17.5 6.25  2.5 17.5 7.5  2.5 16.25 7.5  1.25 16.25 7.5  1.25 17.5 6.25  0 16.25 6.25  0 16.25 7.5  0 17.5 7.5  1.25 17.5 7.5  0 17.5 6.25  3.75 16.25 6.25  5 16.25 6.25  5 17.5 6.25  5 17.5 7.5  5 16.25 7.5  3.75 16.25 7.5  3.75 17.5 6.25  3.75 17.5 7.5  6.25 16.25 6.25  7.5 16.25 6.25  7.5 17.5 6.25  7.5 17.5 7.5  7.5 16.25 7.5  6.25 16.25 7.5  6.25 17.5 6.25  6.25 17.5 7.5  8.75 16.25 6.25  10 16.25 6.25  10 17.5 6.25  10 17.5 7.5  10 16.25 7.5  8.75 16.25 7.5  8.75 17.5 6.25  8.75 17.5 7.5  1.25 18.75 6.25  2.5 18.75 6.25  2.5 18.75 7.5  2.5 20 7.5  1.25 18.75 7.5  0 18.75 6.25  0 18.75 7.5  0 20 7.5  1.25 20 7.5  3.75 18.75 6.25  5 18.75 6.25  5 18.75 7.5  5 20 7.5  3.75 18.75 7.5  3.75 20 7.5  6.25 18.75 6.25  7.5 18.75 6.25  7.5 18.75 7.5  7.5 20 7.5  6.25 18.75 7.5  6.25 20 7.5  8.75 18.75 6.25  10 18.75 6.25  10 18.75 7.5  10 20 7.5  8.75 18.75 7.5  8.75 20 7.5  11.25 18.75 6.25  11.25 18.75 7.5  11.25 20 7.5  12.5 20 7.5  5 12.5 8.75  5 11.25 8.75  3.75 11.25 8.75  5 12.5 10  3.75 12.5 8.75  2.5 12.5 8.75  2.5 12.5 10  3.75 12.5 10  7.5 12.5 8.75  7.5 11.25 8.75  6.25 11.25 8.75  7.5 12.5 10  6.25 12.5 8.75  6.25 12.5 10  10 11.25 8.75  8.75 11.25 8.75  10 12.5 8.75  10 12.5 10  10 11.25 10  8.75 11.25 10  8.75 12.5 8.75  8.75 12.5 10  1.25 13.75 8.75  2.5 13.75 8.75  2.5 15 8.75  2.5 15 10  1.25 12.5 8.75  2.5 13.75 10  0 12.5 8.75  0 12.5 10  1.25 13.75 10  1.25 12.5 10  1.25 15 8.75  0 13.75 8.75  0 13.75 10  0 15 10  1.25 15 10  0 15 8.75  3.75 13.75 8.75  5 13.75 8.75  5 15 8.75  5 15 10  5 13.75 10  3.75 13.75 10  3.75 15 8.75  3.75 15 10  6.25 13.75 8.75  7.5 13.75 8.75  7.5 15 8.75  7.5 15 10  7.5 13.75 10  6.25 13.75 10  6.25 15 8.75  6.25 15 10  8.75 13.75 8.75  10 13.75 8.75  10 15 8.75  10 15 10  10 13.75 10  8.75 13.75 10  8.75 15 8.75  8.75 15 10  1.25 16.25 8.75  2.5 16.25 8.75  2.5 17.5 8.75  2.5 17.5 10  2.5 16.25 10  1.25 16.25 10  1.25 17.5 8.75  0 16.25 8.75  0 16.25 10  0 17.5 10  1.25 17.5 10  0 17.5 8.75  3.75 16.25 8.75  5 16.25 8.75  5 17.5 8.75  5 17.5 10  5 16.25 10  3.75 16.25 10  3.75 17.5 8.75  3.75 17.5 10  6.25 16.25 8.75  7.5 16.25 8.75  7.5 17.5 8.75  7.5 17.5 10  7.5 16.25 10  6.25 16.25 10  6.25 17.5 8.75  6.25 17.5 10  8.75 16.25 8.75  10 16.25 8.75  10 17.5 8.75  10 17.5 10  10 16.25 10  8.75 16.25 10  8.75 17.5 8.75  8.75 17.5 10  11.25 16.25 8.75  11.25 16.25 10  11.25 17.5 10  12.5 17.5 10  11.25 17.5 8.75  1.25 18.75 8.75  2.5 18.75 8.75  2.5 20 8.75  2.5 20 10  2.5 18.75 10  1.25 18.75 10  1.25 20 8.75  0 18.75 8.75  0 18.75 10  0 20 10  1.25 20 10  0 20 8.75  3.75 18.75 8.75  5 18.75 8.75  5 20 8.75  5 20 10  5 18.75 10  3.75 18.75 10  3.75 20 8.75  3.75 20 10  6.25 18.75 8.75  7.5 18.75 8.75  7.5 20 8.75  7.5 20 10  7.5 18.75 10  6.25 18.75 10  6.25 20 8.75  6.25 20 10  8.75 18.75 8.75  10 18.75 8.75  10 20 8.75  10 20 10  10 18.75 10  8.75 18.75 10  8.75 20 8.75  8.75 20 10  11.25 18.75 8.75  11.25 18.75 10  12.5 18.75 10  12.5 20 10  11.25 20 8.75  12.5 20 8.75  11.25 20 10  1.25 21.25 8.75  2.5 21.25 8.75  2.5 21.25 10  2.5 22.5 10  1.25 21.25 10  0 21.25 8.75  0 21.25 10  0 22.5 10  1.25 22.5 10  3.75 21.25 8.75  5 21.25 8.75  5 21.25 10  5 22.5 10  3.75 21.25 10  3.75 22.5 10  6.25 21.25 8.75  7.5 21.25 8.75  7.5 21.25 10  7.5 22.5 10  6.25 21.25 10  6.25 22.5 10  8.75 21.25 8.75  10 21.25 8.75  10 21.25 10  10 22.5 10  8.75 21.25 10  8.75 22.5 10  11.25 21.25 8.75  12.5 21.25 8.75  12.5 21.25 10  12.5 22.5 10  11.25 21.25 10  11.25 22.5 10  3.75 12.5 11.25  3.75 11.25 11.25  5 12.5 11.25  5 12.5 12.5  2.5 12.5 11.25  2.5 12.5 12.5  3.75 12.5 12.5  10 12.5 11.25  10 11.25 11.25  8.75 11.25 11.25  10 12.5 12.5  10 11.25 12.5  8.75 11.25 12.5  8.75 12.5 11.25  7.5 12.5 12.5  8.75 12.5 12.5  7.5 12.5 11.25  1.25 13.75 11.25  2.5 13.75 11.25  2.5 15 11.25  2.5 15 12.5  1.25 12.5 11.25  2.5 13.75 12.5  0 12.5 11.25  0 12.5 12.5  1.25 13.75 12.5  1.25 12.5 12.5  1.25 15 11.25  0 13.75 11.25  0 13.75 12.5  0 15 12.5  1.25 15 12.5  0 15 11.25  3.75 13.75 11.25  5 13.75 11.25  5 15 11.25  5 15 12.5  5 13.75 12.5  3.75 13.75 12.5  3.75 15 11.25  3.75 15 12.5  6.25 13.75 11.25  7.5 13.75 11.25  7.5 15 11.25  7.5 15 12.5  6.25 12.5 11.25  7.5 13.75 12.5  6.25 13.75 12.5  6.25 12.5 12.5  6.25 15 11.25  6.25 15 12.5  8.75 13.75 11.25  10 13.75 11.25  10 15 11.25  10 15 12.5  10 13.75 12.5  8.75 13.75 12.5  8.75 15 11.25  8.75 15 12.5  1.25 16.25 11.25  2.5 16.25 11.25  2.5 17.5 11.25  2.5 17.5 12.5  2.5 16.25 12.5  1.25 16.25 12.5  1.25 17.5 11.25  0 16.25 11.25  0 16.25 12.5  0 17.5 12.5  1.25 17.5 12.5  0 17.5 11.25  3.75 16.25 11.25  5 16.25 11.25  5 17.5 11.25  5 17.5 12.5  5 16.25 12.5  3.75 16.25 12.5  3.75 17.5 11.25  3.75 17.5 12.5  6.25 16.25 11.25  7
[...]
<PointData  Scalars="p_O2"> 
<DataArray  type="Float64"  Name="p_O2"  format="ascii">4.0000000000000000e+01  4.1211823930104629e+01  4.1207077862982409e+01  4.0000000000000000e+01  4.0000000000000000e+01  4.1116552769509951e+01  4.1111650996608461e+01  4.2374775854230236e+01  4.0000000000000000e+01  4.0000000000000000e+01  4.0000000000000000e+01  4.2834527304351916e+01  4.4105589459914498e+01  4.4089759414011581e+01  4.4490331554753411e+01  4.6270571058412649e+01  4.5750122672542268e+01  4.5728299053877549e+01  4.5302861011811281e+01  4.2575824572507067e+01  4.3793495854469235e+01  4.3777182682992333e+01  4.7496289165669566e+01  4.7468398044612641e+01  4.8146246113199744e+01  5.0088668390075497e+01  4.9286174649359758e+01  4.8648061481045033e+01  4.6933172399716327e+01  4.1043228616130492e+01  4.1038219653053211e+01  4.2230401524658468e+01  4.2219762438921414e+01  4.2102336245667615e+01  4.0000000000000000e+01  4.0000000000000000e+01  4.0982685071191440e+01  4.0000000000000000e+01  4.3552084185443704e+01  4.3535378188640721e+01  4.4972333136623902e+01  4.4720504167955561e+01  4.3351761414077416e+01  4.3234486828549606e+01  4.3217222971496902e+01  4.4535517679015612e+01  4.4408935181796714e+01  4.2016471774165311e+01  4.1957894629273746e+01  4.3142770381463329e+01  4.3125331377222679e+01  4.3089354381687762e+01  4.3071819966850086e+01  4.4335137213244657e+01  4.4310884786566632e+01  4.0000000000000000e+01  6.2706150923508091e+01  8.6805332155292277e+01  4.0000000000000000e+01  4.0000000000000000e+01  6.2394621963016917e+01  8.6601842473218539e+01  9.2119092001284159e+01  7.4668231957370679e+01  6.3419558004823436e+01  4.0000000000000000e+01  5.2907349965688105e+01  5.2985735050338860e+01  4.0000000000000000e+01  4.0000000000000000e+01  4.0000000000000000e+01  9.5673737932341794e+01  8.5045288339429632e+01  8.5231952483134108e+01  8.1291027614303218e+01  9.5727461330830053e+01  9.4482863598609967e+01  7.6021919187650695e+01  7.6337677680336995e+01  7.1075031974191305e+01  8.1149487717206242e+01  9.4439107121446298e+01  7.0831176951664673e+01  9.7014922129878940e+01  8.9513864101177191e+01  8.9760044476453203e+01  8.7865505104191541e+01  9.7084459553116318e+01  9.6524970823611881e+01  8.2634005252266562e+01  8.3050984374118698e+01  8.0163125769260461e+01  8.7645501056270916e+01  9.6462509057206105e+01  7.9790132459171332e+01  9.7921434848103814e+01  9.2314161638361952e+01  9.7825393785076500e+01  9.1191827125998415e+01  9.7501567157581050e+01  9.7748401957495474e+01  9.2040860956503053e+01  8.6637963901113636e+01  9.2655179838140469e+01  8.7679519527659053e+01  8.7101786296684963e+01  8.5301853242393747e+01  9.0928604827661431e+01  9.7427323409044661e+01  8.4855496337721078e+01  6.2625075870760917e+01  8.6782446576338984e+01  7.4598884562540064e+01  9.2158549439996449e+01  9.2084724490856772e+01  7.4546332800859730e+01  6.3213276891589707e+01  6.3301641212004839e+01  5.2848976862675656e+01  4.0000000000000000e+01  4.0000000000000000e+01  6.2335849211576416e+01  8.6585272158088287e+01  4.0000000000000000e+01  4.0000000000000000e+01  4.0000000000000000e+01  5.2807929838954124e+01  4.0000000000000000e+01  8.1040580993935990e+01  9.4412204059377672e+01  8.4906536435724149e+01  9.5635684311340412e+01  9.5605094849494691e+01  8.4801687849483741e+01  7.5609206365145951e+01  7.5787562113748308e+01  7.0652063144772342e+01  8.0964611703016530e+01  9.4387001541279886e+01  7.0518172803603051e+01  8.7477588663032691e+01  9.6415619563605247e+01  8.9323856399062549e+01  9.6961556882981839e+01  9.6919954653968830e+01  8.9176597302832633e+01  8.2061704994375873e+01  8.2312035494891688e+01  7.9506684875973633e+01  8.7350503582168471e+01  9.6379418204012438e+01  7.9289973106681188e+01  9.0721434743804281e+01  9.7369090856292374e+01  9.1822307434643832e+01  9.7686934433800786e+01  9.7637837924007229e+01  9.1647913616833208e+01  8.5970085849173628e+01  8.6266757585370129e+01  8.4504099988673616e+01  9.0558795328372753e+01  9.7323234668486094e+01  8.4227461387991468e+01  8.0902445498933560e+01  9.4373304366686966e+01  8.4722539441071262e+01  9.5583879395394817e+01  9.5565799169727327e+01  8.4662044837984652e+01  7.5371892446536648e+01  7.5475302087146957e+01  7.0417754851694511e+01  8.7251962328365749e+01  9.6352110684076024e+01  8.9062418111339554e+01  9.6887986353001722e+01  9.6862970332932150e+01  8.8974011967909959e+01  8.1717112450260544e+01  8.1867822103088713e+01  7.9123564427844272e+01  8.7177556769870336e+01  9.6330762650198452e+01  7.8995939203343326e+01  9.0430809769199612e+01  9.7287330519706160e+01  9.1509302302342348e+01  9.7598901685254674e+01  9.7568092394385417e+01  9.1399847806564992e+01  8.5547703806410738e+01  8.5734240397400555e+01  8.4009981436560025e+01  9.0331046923559498e+01  9.7259188679517351e+01  8.3839875563266503e+01  4.8596377438589911e+01  4.8709171098643985e+01  5.6736246998407076e+01  5.2645535816007715e+01  4.0000000000000000e+01  4.0000000000000000e+01  4.0000000000000000e+01  4.6272289309280389e+01  6.8948354092435252e+01  6.9383067957770578e+01  6.3873528418004462e+01  6.3626753497055617e+01  6.4170353204948626e+01  5.8933868552374136e+01  6.3537143568440662e+01  5.8514426259149701e+01  7.6643383143665858e+01  7.7220617648932731e+01  7.3741443024598908e+01  7.1624590135341549e+01  7.2349625724109572e+01  6.8613621741571635e+01  7.3225796176250185e+01  6.7967086687829649e+01  8.2347329566987440e+01  8.0036124084857448e+01  8.1702761310634372e+01  7.7328798578774681e+01  8.3148852252505904e+01  7.9150119512489326e+01  7.8141790276620284e+01  7.5490475512916689e+01  7.9416829890259535e+01  7.4710855182798809e+01  4.8520657149837398e+01  5.6572231390679171e+01  5.6450654455762191e+01  5.2287055692282280e+01  5.2439008163987303e+01  4.6173040656929288e+01  4.8458792211810604e+01  4.0000000000000000e+01  4.0000000000000000e+01  4.0000000000000000e+01  4.6099695000082612e+01  4.0000000000000000e+01  6.3289486959383119e+01  6.8622490496849522e+01  6.8375984534206722e+01  6.2906821329474852e+01  6.3217316456868737e+01  5.8203224166078016e+01  6.3103457553338671e+01  5.7969579759070832e+01  7.2832495468189592e+01  7.6195845271741874e+01  7.5847869711080847e+01  7.0621184760232708e+01  7.1060775431242007e+01  6.7472642642447852e+01  7.2531371347985328e+01  6.7092472249904802e+01  7.8928062568917312e+01  8.1185746689107503e+01  8.0772156362034622e+01  7.6151498913785119e+01  7.6675323785337341e+01  7.4094202264883108e+01  7.8542778406097014e+01  7.3606747526529517e+01  4.8418744824388334e+01  5.6359592897205872e+01  5.2171152567255120e+01  5.2085463859398416e+01  4.6044720034465414e+01  4.0000000000000000e+01  4.0000000000000000e+01  4.0000000000000000e+01  4.6003495480774752e+01  6.2963945970820269e+01  6.8188348564132710e+01  6.8045393541202159e+01  6.2488707602269322e+01  6.2669592448458431e+01  5.7792882308373080e+01  5.7658845102027442e+01  7.2299385535797569e+01  7.5577175686661363e+01  7.5367189610876011e+01  7.0012230188360633e+01  7.0278565030192098e+01  6.6799377850297063e+01  7.2121499866269659e+01  6.6573685205348738e+01  7.8239235372128434e+01  8.0442693691144783e+01  8.0182078996923465e+01  7.5402540517316183e+01  7.5733625834625016e+01  7.3222269897154774e+01  7.8001718819902834e+01  7.2920666094139975e+01  5.0012072316409963e+01  5.0341069765000498e+01  4.5031509208432233e+01  4.8241628413926520e+01  4.4871431092015236e+01  4.0000000000000000e+01  4.0000000000000000e+01  4.3963897503424462e+01  5.9682039235359490e+01  6.0322904492527698e+01  5.5525980911273557e+01  5.6758812220281236e+01  5.7484370081474275e+01  5.3131824924232731e+01  5.5032210529133160e+01  5.2574212240249686e+01  6.7528255352272069e+01  6.8386563604939184e+01  6.4616199752597765e+01  6.4237085442796385e+01  6.5213548161414366e+01  6.1533420080509600e+01  6.3852442144655569e+01  6.0666691532099442e+01  7.4512067260967825e+01  7.1667294531715498e+01  7.3545126409960460e+01  7.0331762176295044e+01  7.5708070979245136e+01  7.2800674979543444e+01  7.1437287322352091e+01  6.8509787919544337e+01  7.0742116989881367e+01  6.7454577585380605e+01  4.4754685644090308e+01  4.9769388274070799e+01  4.9587984697176090e+01  4.7759469937845893e+01  4.7966009601175081e+01  4.3831187173980439e+01  4.4667372557422858e+01  4.0000000000000000e+01  4.0000000000000000e+01  4.0000000000000000e+01  4.3732055576854009e+01  4.0000000000000000e+01  5.4664675167748314e+01  5.9197526672801644e+01  5.8828380945639260e+01  5.5785936538884592e+01  5.6207388216716204e+01  5.2156251539017511e+01  5.4386983192632407e+01  5.1839885921764470e+01  6.3266197221296139e+01  6.6858393840473141e+01  6.6334702590656775e+01  6.2872334365606861e+01  6.3472121123453292e+01  5.9998439345378564e+01  6.2813779526169483e+01  5.9481117710714834e+01  7.0008177385736630e+01  7.2765866757344384e+01  7.2139956757773575e+01  6.8719210377148300e+01  6.9438414184843111e+01  6.6614864561654258e+01  6.9426532690620519e+01  6.5947582561412531e+01  4.4602342522972535e+01  4.9451239823439799e+01  4.9347780039232482e+01  4.7484312944876166e+01  4.7602800042402414e+01  4.3657355269166004e+01  4.4552786461389289e+01  4.0000000000000000e+01  4.0000000000000000e+01  4.0000000000000000e+01  4.3600848638143660e+01  4.0000000000000000e+01  5.4176908855038562e+01  5.8545825829572856e+01  5.8329512916010067e+01  5.5213653769773842e+01  5.5462009352288199e+01  5.1598966906580713e+01  5.4016510526917635e+01  5.1415247776827158e+01  6.2464179538048626e+01  6.5925412780683743e+01  6.5606732236928707e+01  6.2035499617794905e+01  6.2402236275431548e+01  5.9080010413276142e+01  6.2194221729415425e+01  5.8769696191156228e+01  6.8966770599102404e+01  7.1639603383995208e+01  7.1242652722441818e+01  6.7685257004256769e+01  6.8143091210283572e+01  6.5418916927980931e+01  6.8605467424788941e+01  6.5002629902238297e+01  4.4516046156689740e+01  4.9269803846513483e+01  4.7394397378330240e+01  4.7327792331139577e+01  4.3558262812575101e+01  4.0000000000000000e+01  4.0000000000000000e+01  4.0000000000000000e+01  4.3526591742843834e+01  5.3895754123862382e+01  5.8164890252077953e+01  5.5023956583422319e+01  5.4881911164625883e+01  5.1275870591339050e+01  5.1171718627298347e+01  6.1987612507680957e+01  6.5360916380614228e+01  6.1752012599513634e+01  6.1537166606204678e+01  5.8531562522171491e+01  5.8352005066217650e+01  6.8324634175410125e+01  7.0931742635305341e+01  6.7326129263910403e+01  6.7050568816180117e+01  6.4678557021594273e+01  6.4431402982405956e+01  7.3234638857414041e+01  6.9719192980032631e+01  6.9419566005169969e+01  7.1565644571081705e+01  5.4577465356446801e+01  5.5376312787095188e+01  5.1417058110637903e+01  5.2935152730126802e+01  5.0804276785945710e+01  4.7007130332315462e+01  4.6122224106554150e+01  4.9506119020504478e+01  6.1614855218193568e+01  6.2694699783483124e+01  5.9162754004611813e+01  5.9533475147664923e+01  5.8206494588004198e+01  5.6303301232911849e+01  6.8867819040695593e+01  6.5932977798187466e+01  6.7639280240651033e+01  6.5404903203009425e+01  6.6741223159383253e+01  6.3845260087584471e+01  6.4763192083061895e+01  6.2575913028938217e+01  4.3199693096698354e+01  4.6703406685524875e+01  4.6474360765806765e+01  4.5545845589252217e+01  4.3345931267592320e+01  4.5794188171755074e+01  4.0000000000000000e+01  4.0000000000000000e+01  4.2751898634003972e+01  4.2909732334113706e+01  4.3089913059595517e+01  4.0000000000000000e+01  4.0000000000000000e+01  4.0000000000000000e+01  4.2632935755575701e+01  4.0000000000000000e+01  5.0342930541284289e+01  5.3967927984847627e+01  5.3499898970496197e+01  5.1766719689415595e+01  5.2275198682251137e+01  4.9007246468936941e+01  4.9992012108227470e+01  4.8626516842423996e+01  5.7466378466649481e+01  6.0765971188001217e+01  6.0098168245404651e+01  5.7883558186076698e+01  5.8611204560923170e+01  5.5500641627511555e+01  5.6891226339096427e+01  5.4874948620947059e+01  6.3829457040347521e+01  6.6643865338479287e+01  6.5840540407991625e+01  6.3441007324364506e+01  6.4319214074499101e+01  6.1559505932414062e+01  6.3085324465269494e+01  6.0747371357232232e+01  4.3006910973800025e+01  4.6300400947892633e+01  4.6168014123269444e+01  4.5211999137536296e+01  4.5356469230175044e+01  4.2542614258480427e+01  4.2943889068169639e+01  4.0000000000000000e+01  4.0000000000000000e+01  4.0000000000000000e+01  4.2473867495602761e+01  4.0000000000000000e+01  4.9724076435677638e+01  5.3139333641009522e+01  5.2861805536786711e+01  5.1070328782286403e+01  5.1373593607527305e+01  4.8334571669163005e+01  4.9518934186899884e+01  4.8110654337980414e+01  5.6444112353231219e+01  5.9573463497054938e+01  5.9163089963086193e+01  5.6860865510507594e+01  5.7310205397322235e+01  5.4386932849694823e+01  5.6097181065466678e+01  5.4007496112764358e+01  6.2494435641353270e+01  6.5195700161869524e+01  6.4682316566250506e+01  6.2171085891378880e+01  6.2734520335808071e+01  6.0100871336850439e+01  6.2028135339937052e+01  5.9589715868071110e+01  6.7680166019955578e+01  6.5200308209246728e+01  6.4594533348550272e+01  6.6858567770078466e+01  6.7128867535833621e+01  4.2896311364587298e+01  4.6067723896669911e+01  4.5992869666944436e+01  4.5020177039494449e+01  4.5102207690322558e+01  4.2421792393876729e+01  4.2860816993721762e+01  4.0000000000000000e+01  4.0000000000000000e+01  4.0000000000000000e+01  4.2382909072682736e+01  4.0000000000000000e+01  4.9363159484164392e+01  5.2649677739534809e+01  5.2490233206509977e+01  5.0662976374159733e+01  5.0837880214536931e+01  4.7939978450705020e+01  4.9246314323801307e+01  4.7811952536898907e+01  5.5830549076220002e+01  5.8845371766626471e+01  5.8604120056523911e+01  5.6247172843282620e+01  5.6512225685732417e+01  5.3715110937584541e+01  5.5629022070455726e+01  5.3493910277181371e+01  6.1664572710254546e+01  6.4279011815762900e+01  6.3969163718357123e+01  6.1386728722336990e+01  6.1727732965072171e+01  5.9190428064582434e+01  6.1386857765152051e+01  5.8885056918402043e+01  6.6692593572239304e+01  6.4114475863772597e+01  6.6349270620998908e+01  6.5952948874357816e+01  6.6355393757071923e+01  6.8556511389311552e+01  6.3743031743165091e+01  4.2835243535952742e+01  4.5938756607898917e+01  4.4960709608902192e+01  4.4920531850993939e+01  4.2354805027212244e+01  4.0000000000000000e+01  4.0000000000000000e+01  4.0000000000000000e+01  4.2335792297851768e+01  4.9161876929445796e+01  5.2374360210607200e+01  5.0535565312797509e+01  5.0449116425192450e+01  4.7719063678641319e+01  4.7656079529590507e+01  5.5482179115531558e+01  5.8427427582843450e+01  5.6052728315155875e+01  5.5919957005962033e+01  5.3332362521311090e+01  5.3222307985264287e+01  6.1182607367081424e+01  6.3740162197339131e+01  6.1134406476681718e+01  6.0960920177181364e+01  5.8660157346459265e+01  5.8506006228785623e+01  6.6105016926729320e+01  6.8288351712731924e+01  6.5657043022235825e+01  6.5452183693079760e+01  6.3466966513728153e+01  6.3276472767324769e+01  4.8538669001725061e+01  4.9236892135103410e+01  5.1686539062081202e+01  5.0729298456460128e+01  4.5473420097791880e+01  4.4989519254521234e+01  4.7808091369725410e+01  6.3563242287582518e+01  6.4993085183482634e+01  6.2161212256973251e+01  6.2053171335030875e+01  6.3563242287776099e+01  6.0806080325499785e+01  6.0806080325385111e+01  5.6573018574835942e+01  5.9377922015771425e+01  5.7882650396615524e+01  4.2425835196235845e+01  4.5124889050968648e+01  4.4859891083589886e+01  4.4344586825476185e+01  4.2593470752800300e+01  4.4623702260003945e+01  4.0000000000000000e+01  4.0000000000000000e+01  4.2183613754061241e+01  4.2359442954054252e+01  4.2298995630378094e+01  4.0000000000000000e+01  4.0000000000000000e+01  4.0000000000000000e+01  4.2050061990703611e+01  4.0000000000000000e+01  4.8008056096005795e+01  5.0983716087279838e+01  5.0440136680233984e+01  4.9416555976850447e+01  4.9990053852739422e+01  4.7250634970705747e+01  4.7601493079371728e+01  4.6822140923612658e+01  5.3969285807690746e+01  5.6897147309192746e+01  5.6117222749562551e+01  5.4708386272660995e+01  5.4825488961691349e+01  5.5533326511293019e+01  5.2771280520183474e+01  5.3673136973159643e+01  5.3299592168004381e+01  5.2063911752299568e+01  5.9717932911376444e+01  6.2398698924163554e+01  6.1454482817988797e+01  5.9818639887228805e+01  6.0820325603383765e+01  5.8227982514442303e+01  5.8846133051165971e+01  5.7304533643185714e+01  4.2202333570603940e+01  4.4657220199382252e+01  4.4502079211978334e+01  4.3966092983867817e+01  4.4130442578996544e+01  4.1947982486191584e+01  4.2128569927454897e+01  4.0000000000000000e+01  4.0000000000000000e+01  4.0000000000000000e+01  4.1869850053997006e+01  4.0000000000000000e+01  4.7288811529133099e+01  5.0018756951066557e+01  4.9692707278356508e+01  4.8624881736203513e+01  4.8970667891521479e+01  4.6491525969803121e+01  4.7048260816865557e+01  4.6236607033119441e+01  5.2775896142305911e+01  5.5501223762062004e+01  5.5017294955197563e+01  5.3541068039024736e+01  5.4055204175693923e+01  5.1509204853505274e+01  5.2367649027445118e+01  5.1075907994052152e+01  5.8150619620753069e+01  6.0693404190105277e+01  6.0085298993338142e+01  5.8362175150276506e+01  5.9009625278334617e+01  5.6566147011889100e+01  5.7599550393126350e+01  5.5980079010010648e+01  6.3110875859065075e+01  6.2456318250005410e+01  6.4702856718361517e+01  6.2873965794766015e+01  6.1362726260472805e+01  6.0665029198252967e+01  4.2072534826856426e+01  4.4383983393143779e+01  4.4295494938387662e+01  4.3746580844219181e+01  4.3840700576883783e+01  4.1810382102895787e+01  4.2030635467104865e+01  4.0000000000000000e+01  4.0000000000000000e+01  4.0000000000000000e+01  4.1765812519617434e+01  4.0000000000000000e+01  4.6864557373228472e+01  4.9442399626879443e+01  4.9253586973212848e+01  4.8157851961830623e+01  4.8358827176976050e+01  4.6041438933426420e+01  4.6726438594453299e+01  4.5894513492535445e+01  5.2052516926983046e+01  5.4641222437074028e+01  5.4354784022347346e+01  5.2835468683844063e+01  5.3140756234454770e+01  5.0740709497071848e+01  5.1813633478241528e+01  5.0486303824296108e+01  5.7168422291916762e+01  5.9606120515486950e+01  5.9237052819959288e+01  5.7457219868190798e+01  5.7851205896606210e+01  5.5520765395141119e+01  5.6838183220598310e+01  5.5168530026107248e+01  6.1936939255895325e+01  6.4151274782100884e+01  6.3721602506979735e+01  6.1825164928074223e+01  6.2284648133501399e+01  6.0110662253110142e+01  6.1534584853327772e+01  5.9680772837786385e+01  6.6245466687922260e+01  6.4364255179991602e+01  6.3881477529281199e+01  6.5844926458499444e+01  6.5794412099477000e+01  4.2000282861671067e+01  4.4231331633164508e+01  4.4187853596172943e+01  4.3631871341581231e+01  4.3678229796905207e+01  4.1733497856752827e+01  4.1979746806278172e+01  4.0000000000000000e+01  4.0000000000000000e+01  4.0000000000000000e+01  4.1711592100162171e+01  4.0000000000000000e+01  4.6626145189078187e+01  4.9115990096515205e+01  4.9022404202951400e+01  4.7911319660742997e+01  4.8011150296522196e+01  4.5787608750487529e+01  4.6558006706908991e+01  4.5714970159192063e+01  5.1639023839308422e+01  5.4144489614149222e+01  5.4000681275923995e+01  5.2457457253453889e+01  5.2611024484443909e+01  5.0300033690463337e+01  5.1519882787514071e+01  5.0172898725852043e+01  5.6594756818746909e+01  5.8963735685895692e+01  5.8775634699025559e+01  5.6963997518884661e+01  5.7165127935245494e+01  5.4908555481344386e+01  5.6427718556626814e+01  5.4730075724739542e+01  6.1235310406151036e+01  6.3400557262943714e+01  6.3178145952541790e+01  6.1243393443200262e+01  6.1481553268653506e+01  5.9360706918469610e+01  6.1028633982268204e+01  5.9139558285523719e+01  6.5455952178286353e+01  6.3518947750335727e+01  6.5467990832123178e+01  6.5205109087210232e+01  6.3266861273546454e+01  6.5220710161992898e+01  6.0820325603554565e+01  6.2398698924474040e+01  5.9717932911600677e+01  5.9818639887594124e+01  5.8227982514590991e+01  5.5533326511429692e+01  5.4708386272934447e+01  5.7304533643542690e+01  6.2227307271960115e+01  6.3923172491387099e+01  6.4921017159445384e+01  6.4516364423828833e+01  6.3287513585371947e+01  4.2000937273278105e+01  4.4243508881635428e