<?xml version="1.0"?>
<VTKFile type="UnstructuredGrid"  version="0.1"  >
<UnstructuredGrid>
<Piece  NumberOfPoints="15341" NumberOfCells="69580">
<Points>
<DataArray  type="Float64"  NumberOfComponents="3"  format="ascii">5.471139 38.293011 6.257996  6.845644619572445 37.73538279006962 6.158987612112946  6.014095119572445 37.86532129006963 6.706858612112946  5.8746775 37.625866 6.127229  6.3026885 38.1630725 5.710125  6.278216 36.958721 5.996462  6.417633619572445 37.19817629006963 6.576091612112946  6.706227 37.49592749999999 5.579358  7.134238 38.033134 5.162254  6.55705123914489 37.43763158013925 7.155721224225892  10.175575 36.475452 6.27863  8.831910228805445 36.55918194657623 5.216400396985445  9.540629612782194 37.30969659758891 5.379282230328112  9.364640112782194 36.9966260975889 6.012388230328112  10.3515645 36.7885225 5.645524  9.642845116023249 36.03800784898733 5.482642166657332  10.527554 37.101593 5.012418  9.818834616023249 36.35107834898733 4.849536166657332  8.553705225564389 37.51780019517781 5.746146460656225  9.1101152320465 35.60056369797466 4.686654333314665  8.51022 20.331377 2.851391  7.422967506271082 20.22724233585681 2.064382590555621  7.600060506271082 20.02289383585682 2.712358090555621  8.284166500000001 19.7632695 2.348194  8.333127000000001 20.5357255 2.2034155  8.156034 20.740074 1.55544  8.1070735 19.967618 1.7002185  8.058113000000001 19.195162 1.844997  7.374007006271082 19.45478633585682 2.209161090555621  6.689901012542164 19.71441067171363 2.573325181111242  10.327099 25.832195 7.801149  10.76491608486672 24.97757781725456 7.044161530278216  9.763097999999999 25.499397 7.37015  9.8721405 25.0293385 7.836265  9.417182 24.226482 7.871381  10.30995758486672 24.17472131725456 7.079277530278216  9.308139499999999 24.6965405 7.405266  9.199097 25.166599 6.939151  10.20091508486671 24.64477981725456 6.613162530278216  11.20273316973343 24.12296063450912 6.287174060556432  14.461843 32.790646 10.238553  14.56280290516889 31.89294329070079 9.748111436658322  14.666762 32.5951425 9.594715000000001  14.9838435 32.382887 10.0524085  15.505844 31.975128 9.866263999999999  14.76772190516889 31.69743979070078 9.104273436658321  15.08480340516889 31.48518429070079 9.561966936658322  15.1887625 32.1873835 9.4085705  14.871681 32.399639 8.950877  14.66376281033778 30.99524058140157 9.257669873316644  12.174349 36.687149 3.402411  12.58518820021045 36.01507454343802 2.422757008237822  12.49874570021045 36.85964654343802 2.233635508237822  12.05851070021045 36.48331154343802 2.573248508237822  13.1412615 36.595247 2.9123065  12.7010265 36.218912 3.2519195  12.614584 37.063484 3.062798  13.054819 37.439819 2.723185  13.227704 35.750675 3.101428  11.9426724004209 36.27947408687604 1.744086016475644  9.418782 36.62027 2.76151  10.3152334071735 36.01654464161009 2.26260986348483  10.60378040717351 36.51557564161009 2.70387636348483  9.955122907173505 35.99650414161009 2.79503686348483  9.778892500000001 36.6403105 2.229083  10.0674395 37.1393415 2.6703495  10.716097 37.658413 2.579189  10.42755 37.159382 2.1379225  10.139003 36.660351 1.696656  10.49146381434701 35.37273828322018 2.82856372696966  9.133123735824814 24.60511603806867 6.469043607867246  9.614504780165429 25.33970433563751 6.013561911519705  10.02991256033086 25.51280967127501 5.08797282303941  9.548531515990241 24.77822137370617 5.543454519386951  10.61632286503214 24.81788515289207 5.687573441797921  10.13494182069153 24.08329685532323 6.143055138145462  9.067150471649626 24.04363307613733 5.998936215734492  3.271394 31.200409 5.96299  3.4345195 30.849417 4.9440415  3.9820155 30.89178 5.4122815  3.505297 31.562455 5.307845  3.7392 31.924501 4.6527  3.6684225 31.211463 4.2888965  4.2159185 31.253826 4.7571365  4.692637 30.583151 4.861573  4.145141000000001 30.540788 4.393333  3.597645 30.498425 3.925093  5.393256 28.362551 4.979815  5.3512385 28.3981765 4.061513  4.591022 28.469723 4.3129445  4.9881905 29.0002405 4.377247000000001  4.583125 29.63793 3.774679  4.5490045 28.5053485 3.3946425  4.946173 29.035866 3.458945  4.1859565 29.1074125 3.7103765  3.788788 28.576895 3.646074  5.309221 28.433802 3.143211  0.723676 22.247635 6.237782  1.326414931883102 22.95205449933191 5.190992969977041  1.52974233241164 22.35433926019335 5.707361736116244  1.170536431883102 23.07794449933191 5.950261469977042  0.8795545 22.121745 5.4785135  1.035433 21.995855 4.719245  1.68562083241164 22.22844926019334 4.948093236116243  1.617396863766204 23.90825399866383 5.662740939954083  1.976602764294742 23.18464875952526 5.419841206093285  2.33580866482328 22.46104352038669 5.176941472232487  2.916744 34.092014 6.696283  2.132576085327754 34.67083607898971 6.193489968846055  2.344643178110108 33.78451930336181 5.964670840096571  2.9903735 34.24666 5.9332525  3.064003 34.401306 5.170222  2.206205585327754 34.82548207898971 5.430459468846054  2.418272678110108 33.93916530336181 5.201640340096571  1.772542356220217 33.47702460672362 5.233058680193142  1.560475263437862 34.36334138235152 5.461877808942626  1.348408170655507 35.24965815797942 5.69069693769211  9.998944733981187 23.52680276241333 4.976270394940078  9.533047602815406 23.78521791927533 5.487603305337284  9.195068965885337 24.18458856434827 4.931057873043705  10.01442864715602 24.51980621684417 5.032121608989744  9.210552879060172 25.17759201877911 4.986909087093371  8.391193197789486 24.84237436628321 4.885845351147332  8.729171834719555 24.44300372121027 5.442390783440912  1.318116 28.796633 7.423093  1.715931221724772 28.87656850569331 6.159819968620438  2.1460435 28.8710755 6.731542  1.6529945 28.437438 7.1113865  1.811165 29.2302705 7.0432485  1.381052721724772 29.23576350569331 6.471526468620437  2.304214 29.663908 6.663404  1.874101721724772 29.66940100569331 6.091681968620438  1.987873 28.078243 6.79968  1.443989443449543 29.67489401138662 5.519959937240876  7.187508 22.832134 7.868849  7.458771747308959 22.80569363883959 7.000852418285924  6.669116879406445 22.02140187969375 7.191797413523633  6.6991915 22.9056365 7.3840115  6.210875 22.979139 6.899174  6.940380626715404 21.99496151853333 6.323800831809558  6.970455247308958 22.87919613883959 6.516014918285924  6.180800379406445 22.09490437969375 6.706959913523633  6.150725758812889 21.2106697593875 6.514745827047267  7.730035494617918 22.77925327767917 6.132855836571848  3.518383 40.003617 6.822994  3.144800009294336 38.86595976520731 6.315841961590718  2.620435009294336 39.20569526520731 6.513682961590717  3.193660009294336 39.20569526520731 6.954556461590718  3.469523 39.6638815 6.1842795  2.945158 40.003617 6.382120499999999  2.371933 40.003617 5.941247  2.896298 39.6638815 5.743406  3.420663 39.324146 5.545565  2.868937018588673 38.40777353041463 7.086118923181436  4.149047 40.003617 9.753643  4.952839194245021 39.38547102809846 8.84188121438906  4.225482694245022 39.38547102809846 8.94820921438906  4.488288000000001 40.003617 8.8342595  4.8764035 40.003617 9.647314999999999  5.60376 40.003617 9.540986999999999  5.2156445 40.003617 8.7279315  4.827529 40.003617 7.914876  4.564723694245021 39.38547102809846 8.028825714389061  4.301918388490042 38.76732505619694 8.142775428778121  14.743208 24.585421 6.329419  13.878747 24.045576 5.9444485  13.86744149298995 24.29674139393598 6.999585961554093  14.511191 23.985343 6.328276499999999  14.110764 24.645654 5.945591  13.47832 24.705887 5.561763  13.23499749298995 24.35697439393598 6.615757961554094  14.279174 23.385265 6.327134  13.63542449298995 23.69666339393598 6.998443461554094  12.9916749859799 24.00806178787196 7.669752923108187  2.840045 32.38364 3.48362  1.409942595316044 32.72840655229121 4.192468594861514  2.019082460392735 33.03709761261449 3.60713640508372  2.306293678110109 32.93033230336181 4.35833934009657  2.23090513492331 32.07494893967672 4.068952189777794  1.62176526984662 31.76625787935345 4.654284379555587  1.697153813033419 32.62164124303854 4.943671529874365  1.485331138502843 33.5837899159763 4.48185574518029  1.198119920785469 33.69055522522897 3.730652810167439  5.487421 16.518658 3.45066  5.903851066106158 16.10511239255457 2.342904269044605  6.062545066106159 16.62786839255457 2.980769769044604  5.312810000000001 16.7285615 2.6465755  5.328727000000001 15.995902 2.8127945  5.138199 16.938465 1.842491  5.887934066106158 16.83777189255457 2.176685269044605  5.154116 16.2058055 2.00871  5.170033 15.473146 2.174929  6.637669132212316 16.73707878510914 2.510879538089209  13.487854 20.805481 7.40877  12.98248252264364 21.22103651772565 8.612591209227237  11.98571414531169 21.37635146370502 8.304137527208084  12.78971284766689 20.50012234076726 8.016951537249296  12.68385529764479 21.68171012293777 7.695955989958787  13.68062367497675 21.5263951769584 8.004409671977941  11.87985659528959 22.55793924587553 7.983141979917574  12.87662497262154 22.40262429989617 8.291595661936729  12.09157169533379 20.19476368153451 8.625133074498592  13.8733933499535 22.2473093539168 8.600049343955881  16.384533 24.386837 11.8185  16.12920848211625 25.18040462658908 11.01490826283104  16.00973498211625 25.17401312658908 11.71727526283104  15.58764637779224 24.49092194631925 11.16182951281137  16.5040065 24.3932285 11.116133  16.62348 24.39962 10.413766  15.70711987779224 24.49731344631925 10.45946251281137  14.79075975558447 24.59500689263851 10.50515902562274  15.21284835990849 25.27809807290834 11.06060477564241  15.6349369642325 25.96118925317817 11.61605052566208  6.400694 39.279545 6.490054  6.030650597745693 39.10872061609045 7.189587801701227  6.478872619572445 38.35858829006963 6.822887612112946  5.921929478212732 38.6524455978263 7.014106248329954  5.443164956425464 38.02534619565261 7.538158496659907  6.108829217318139 38.18776390616009 7.522421413814173  5.551886075958425 38.48162121391676 7.713640050031181  6.000108097785177 37.73148888789594 7.3469398604429  5.660607195491386 38.93789623218091 7.889121603402454  9.815061999999999 38.669121 11.854831  9.814438542902801 37.8
[...]
<PointData  Vectors="u"> 
<DataArray  type="Float64"  Name="u"  NumberOfComponents="3" format="ascii">4.7667804428240510e+02 -1.3729231409939928e+02 -1.1813219443035268e+02  2.1297917660355861e+02 -9.2272772823809163e+01 -1.6212150115280082e+02  3.1238109702594869e+02 -1.1319456870553057e+02 -1.6529756613777155e+02  2.5591996680241078e+02 -1.5886749148266065e+02 -1.9701715625780949e+02  2.6323752977038515e+02 -6.4082068259437406e+01 -1.8346847177801695e+02  2.3548691993734045e+02 -1.5765183989738557e+02 -2.0987612733603783e+02  2.4843684638182870e+02 -1.2605200422510285e+02 -1.7296747880127774e+02  2.1520566122655103e+02 -1.5134537664706539e+02 -1.9555372774186782e+02  1.6660201655671210e+02 -8.8176498251893136e+01 -1.6418404032351734e+02  2.6054272569703460e+02 -9.6851452708651792e+01 -1.3158277860185069e+02  6.4779618938079068e+01 -1.5539480842623976e+02 -1.4449168063909119e+02  1.0242209477973778e+02 -1.0883763468392284e+02 -1.2842520254538528e+02  8.3964481828824063e+01 -1.0758607432487929e+02 -1.4423120900233062e+02  8.3794163086969334e+01 -1.1722716273184743e+02 -1.3417524960727602e+02  9.5501679156841519e+01 -1.4615488676793768e+02 -1.6634923939279085e+02  1.0062123007159829e+02 -1.1941388434457454e+02 -1.2227265806845989e+02  1.1353267609709206e+02 -1.2264136817182185e+02 -1.7194503319413258e+02  1.0701027234563740e+02 -1.0583203875573875e+02 -1.3304749080203987e+02  1.0992055446054164e+02 -9.8688402072449620e+01 -1.3301929797018491e+02  9.7284874500716157e+01 -9.8246788536153332e+01 -1.1443600037463652e+02  1.7355136237553126e+01 1.6476903425301384e+01 2.9308571940002196e+01  1.8622235566730545e+01 6.5629837725051940e+00 1.4159528635862461e+01  2.1048477980696980e+01 7.3215314081136365e+00 1.9052303124462391e+01  8.2581070087834458e+00 8.7552273670315888e+00 2.2740775610089592e+01  1.4272334174685355e+01 1.7271124381156788e+01 2.3065690533198239e+01  1.2668156077183356e+01 1.6061415254548965e+01 1.7319873648511351e+01  7.7661830205735187e+00 8.3108329089097452e+00 1.5840352111363934e+01  7.5496300555826279e+00 6.1439191535884827e+00 1.6163902527072210e+01  1.5158201249961158e+01 4.3364872616422012e+00 1.4456292443813911e+01  2.2147126799344548e+01 2.7383127238928362e-01 1.1616201986287830e+01  7.9977461958455450e+01 5.4042848724885957e+01 6.9170978936467648e+01  9.4571004202244140e+01 3.7291214465958980e+01 6.0515168036986807e+01  8.9255400833420936e+01 5.3538501512957168e+01 6.5201510666326485e+01  9.4285112472914335e+01 5.6747849204366631e+01 4.7387692025884654e+01  1.1050555378403777e+02 5.8694005661192641e+01 3.3690967644801844e+01  1.0180641579140270e+02 4.0889403623027263e+01 5.0650102249798948e+01  1.0337839950280186e+02 6.0457085882910732e+01 5.4386729260739052e+01  9.6734486704596065e+01 5.2819598434969059e+01 6.0969688555900348e+01  9.6255363604864968e+01 3.8316094914693423e+01 5.6496966009404971e+01  1.0066986359453814e+02 2.9241808360618482e+01 5.7309126481568221e+01  1.4418596708402433e+02 -7.3943889633408247e+01 9.8734863669800959e+01  1.1416268289019879e+02 -6.5184617912953868e+01 5.8425352457529463e+01  1.0976007294174792e+02 -1.0396437816035275e+02 6.6276910444386800e+01  1.2960570570094876e+02 -4.9381403950597210e+01 9.9215326324510016e+01  9.9583287915501742e+01 -4.7933320173410642e+01 7.5078770642998251e+01  1.0745992551068295e+02 -6.3957504016526983e+01 3.0563316761198113e+01  9.9613287788711759e+01 -5.4854335866297554e+01 4.7981075929535329e+01  1.0748488534191428e+02 -6.7619247416139245e+01 4.6911941029335672e+01  1.1222731035976500e+02 -8.8553997352912603e+01 2.4203739557259162e+01  1.0514329035945424e+02 -4.9791078803126297e+01 3.7030570317561910e+01  1.9193507481310616e+02 -2.1872009759659964e+01 -1.3519170146613357e+02  1.5270770954723412e+02 8.2210918573809444e+00 -6.4578010637162123e+01  1.5553513990078744e+02 2.4173363516982015e+01 -7.2527139987847463e+01  1.5608612337676863e+02 2.7930999389873827e+00 -9.4010151328866712e+01  2.0107690962971427e+02 1.9956672763256847e+01 -6.6895322278270996e+01  1.8053430451551029e+02 -6.9326588988181626e-01 -9.3887084255510089e+01  1.9327790024795422e+02 3.5142972986164132e+01 -9.4178449169195488e+01  1.8742807436533980e+02 3.7628880155119816e+01 -6.0405517808135478e+01  1.9338133876509849e+02 5.6412657121919914e+00 -5.6687765707159066e+01  1.2467986689196712e+02 1.7255622575604878e+01 -6.4434547216010614e+01  1.2472146781284822e+02 -6.7811679856683057e+01 -1.5897013244434888e+02  1.0364521759600215e+02 -1.2257144043612078e+01 -1.1688042888925972e+02  1.2222725614462131e+02 -2.8569092727995955e+01 -1.3973458004037889e+02  1.0888401126924614e+02 -3.8155519549962513e+01 -1.2953182795621402e+02  9.5672324872896979e+01 -2.8965697017810084e+00 -1.7289204166823558e+02  1.4444018547103232e+02 -7.5289939349863474e+01 -1.9943546461969382e+02  1.6517899538471008e+02 -4.8413768732772816e+01 -2.3136057299414168e+02  1.0709943521464453e+02 2.8644426046008714e+01 -1.8710906968345910e+02  8.4522122692604668e+01 2.0401011387942415e+01 -1.3349367849301055e+02  1.1060046023198859e+02 -3.1445576006678930e+01 -9.7024797247682443e+01  9.7346820950286499e+01 4.0743912508985943e+01 4.9120333826827775e+01  9.2805118642936336e+01 3.5420842848695045e+01 6.1682970186171104e+01  8.7468372618784699e+01 2.7430491094895615e+01 6.1189096083725389e+01  9.1151928299308281e+01 3.0761782424058566e+01 5.4432739708247269e+01  9.2632806497004069e+01 2.9742699392499588e+01 6.0803851074071027e+01  9.6516070333256891e+01 3.3690075397289895e+01 5.2240935056416930e+01  9.3669906429062166e+01 3.2873045406976246e+01 4.5291499687793063e+01  1.5800334893639968e+02 -2.7480769668302150e+02 -1.2031692379071880e+02  2.2627206777709071e+02 -3.2344880049370011e+02 -5.0711731039264258e+01  3.0042904956008380e+02 -2.5488327976861413e+02 -1.1050538522226240e+02  1.7476854917404569e+02 -3.3412555712545901e+02 -7.5622951504795211e+01  1.3428978094745008e+02 -3.3106845092000941e+02 3.3735853866058561e+00  2.0085404187709557e+02 -3.6541198855540370e+02 8.3410194269997888e+01  2.5155657120597644e+02 -4.8096078950123911e+02 7.4328205229634619e+01  6.9078919049435683e+02 -2.5445732505501431e+02 -2.3385144387282989e+02  5.9398971120056478e+02 -4.2016872834420508e+02 -2.2522657260076582e+02  3.8584905860527226e+02 -3.4227983142076448e+02 3.3678875104345700e+01  3.0185072876660479e+02 -6.7299828986500700e+01 -6.0832271003958411e+01  2.6824686291230495e+02 -4.6829895774770037e+01 -7.5065665833444882e+01  2.9903687192265534e+02 -1.0451848974883782e+02 -8.5704397774335291e+01  3.3977014736436053e+02 -6.5314123474076425e+01 -1.0493177827823999e+02  4.6237377641397092e+02 -1.2661600297616540e+02 -1.2348363736140348e+02  2.9654513954088708e+02 -7.7786303924205185e+01 -1.2737366752103615e+02  3.3112207301268927e+02 -2.5033529663430055e+01 -1.3897329826027729e+02  4.0423686620813652e+02 -1.6785931065267252e+02 -1.1074635310888837e+02  3.3454869073306855e+02 -1.8502728411947459e+02 -5.6348386494239257e+01  2.4523064234690258e+02 -1.6445760563844150e+01 -1.2166019201052826e+02  4.6581740513558579e+01 -5.3782289503958943e+01 -3.8625912760010038e+01  5.9071173886207433e+01 -6.9695719238675210e+01 -3.7901551844235520e+01  6.0823042802554056e+01 -5.9541027819444771e+01 -3.6327503768096086e+01  6.3557694184274588e+01 -7.3496053966266004e+01 -2.8743528647535058e+01  4.8018449578909063e+01 -6.1038497343823181e+01 -4.0239040432218722e+01  4.6506304757684674e+01 -5.0048740195032224e+01 -4.3975256636434658e+01  5.7927201929426744e+01 -5.3218988706065929e+01 -3.8211051287859839e+01  7.0128306391590456e+01 -9.2439311094782042e+01 -3.3852323904367317e+01  7.0338051347282246e+01 -7.0967016929983103e+01 -3.5349591042522299e+01  7.0038357882802444e+01 -5.3859280330830735e+01 -3.2492596327443287e+01  9.9358382551511628e+00 -2.5862107089021674e+01 -3.1416000960756460e+01  7.3733055201256803e+01 -2.3374037086162193e+01 -1.2703363576596328e+01  6.0605314384075839e+01 -8.6137881769663593e+01 -3.8755398108853250e+01  3.4467889363630659e+00 -6.7747509614103080e+01 -3.2943233959231058e+01  2.2430438030714697e+01 -8.2707207436995205e+01 -2.1845557347709729e+01  5.5445954638495536e+01 -4.0489537384980352e+01 -1.0969687430427399e+01  5.8591768171524556e+01 -9.3288700395358902e+01 -2.7560053892377187e+01  9.0933900214267140e+01 -1.1143411445157845e+02 -3.3023733791189890e+01  9.9906488418389785e+01 -5.8223810292811010e+01 -2.6390804992230589e+01  1.1355083801060266e+02 -1.0311616495354595e+01 -1.5786590169398679e+01  8.6009822597935184e+01 2.9771482637281981e+01 5.4488111531925234e+01  8.9665453960660940e+01 3.0097884744430932e+01 4.8034786214755215e+01  8.4836750350475469e+01 2.6098351193146318e+01 4.6699983282637241e+01  8.6791610529347167e+01 2.8501942495405764e+01 5.5554945628662068e+01  9.1565613340895695e+01 2.5123374967748095e+01 5.1491648807476295e+01  9.4779691123228190e+01 1.8066390919655770e+01 4.1538886923555886e+01  9.3004421222639294e+01 2.5126625429339970e+01 4.5296180527940678e+01  9.6679754697502016e+00 -1.5711651212014786e+02 -2.3274387933070573e+00  9.3867309925208488e+01 -2.1647363958087359e+02 -3.4670215651726821e+01  5.3978211269383735e+01 -2.0496504492750230e+02 -6.5909074737685216e+01  3.6974129573751533e+01 -1.8401214001997448e+02 -5.5877940697027874e+01  2.9916362062572865e+01 -1.7960870049180872e+02 -1.3885024231466225e+00  7.4080659753909160e+01 -2.2319535785886066e+02 -3.5785631444901891e+00  7.7915641674566587e+01 -2.3722524725954230e+02 -7.2015916626216679e+01  1.0487439076889719e+02 -2.3167882098007621e+02 -4.1610998879473215e+01  5.3450212395756452e+01 -2.0365097273871709e+02 -7.4717771567892086e+01  1.2566716983112597e+02 -2.3179916288856509e+02 -2.0118579026163747e+01  8.5394263539127479e+01 4.3009643692715379e+01 -9.5105641183341518e+00  8.4166595551866251e+01 3.0235656398796444e+01 1.3202752391930199e+01  7.1932669487539258e+01 2.0220591181772640e+01 -5.1297471412853950e+00  7.6463963732976310e+01 3.6384189521911900e+01 6.9926386499379207e+00  7.9166949884678544e+01 1.7755976841717914e+01 2.4155802120623587e+01  7.2329738462650738e+01 1.2147313847543685e+01 1.0491487189784959e+01  8.2619563134058694e+01 1.9447967245889789e+01 2.0217078250403556e+01  6.8411634566953950e+01 8.0431539930847862e+00 7.8438780757198980e+00  5.8427833074794520e+01 -2.3163763144660621e+00 9.7824397390316209e-01  8.3057061977326271e+01 2.1081349051282064e+01 2.3805738180076940e+01  1.7315913895536926e+02 -1.5979100337004020e+01 6.9122535325753006e+01  1.7063662948129277e+02 1.8160535335555092e+01 6.9043027631596658e+01  1.3541488795419855e+02 2.4152917636327174e+01 4.8100077715998921e+01  1.8381275770208475e+02 1.1378102447440240e+01 4.3904940436391854e+01  1.7123185778777861e+02 -1.5753784637551647e+01 9.1336234357992851e+01  1.2719639885886791e+02 -1.1986681024898195e+01 7.2416157962723375e+01  7.6273657667023258e+01 1.2660477617630500e-01 6.9890000518824493e+01  1.0636175317688581e+02 -1.8108267888565077e+01 9.5001437271760679e+01  1.4611171770702390e+02 -8.5471923106638048e+00 1.1502974264356084e+02  1.8352329597180434e+02 3.9394217159897636e+01 3.3829979353452131e+01  2.4631667404875753e+02 5.2074045909409659e+00 -7.3745165961799472e+01  2.6849188177131157e+02 -2.2433218346855799e-01 -3.9703889843561527e+01  2.4551495769824515e+02 6.0233317379857754e+00 -4.4146557001804013e+01  2.5253974218168534e+02 -1.0300118924663229e+00 -3.9745174137298150e+01  2.8361832893853568e+02 7.2558422429318545e+00 -4.4299751818167579e+01  2.8344272530564098e+02 6.4549295971143614e+00 -1.6522904700028530e+01  2.7248098203229705e+02 1.8072111762546503e+00 -3.6213706201857271e+01  2.7596506447788698e+02 -1.6656466236605898e+01 8.5743990009059061e+00  2.6460151622658378e+02 -1.0620449695392164e+01 -7.2052597261380873e+00  2.6489785280470363e+02 -7.0149804541727701e-01 -2.0160189834788117e+01  1.1130919263765702e+02 2.0903661610671595e+01 6.0151050573888895e+01  1.0828386476414848e+02 5.8360492479683241e+00 5.2254619833858960e+01  1.0666213288868835e+02 1.9525655969171893e+01 5.2369102085358058e+01  1.0985140532930636e+02 1.1307256430989147e+01 5.4228074394412197e+01  1.0823560398378987e+02 8.5280777506818524e+00 6.4577828240102775e+01  1.0559375837963508e+02 5.8992537720855944e+00 6.8704302473365345e+01  1.0684158265414807e+02 1.6664747675335992e+01 5.5711406423080220e+01  1.0816026014595941e+02 -7.2668764963669019e-01 4.8641052713277062e+01  1.0837740590219468e+02 1.3653743608031885e+01 4.7216143789984514e+01  1.0269587510130738e+02 2.4269427507877296e+01 5.1813177618232295e+01  5.8701911321598793e+01 -1.9177812921454304e+02 3.4135875099879385e+01  9.8093970011899614e+01 -1.4616260462824934e+02 -2.2881080620953458e+01  6.6055618172180559e+01 -1.3077803823392341e+02 1.0911470476656627e+01  7.2419109764771051e+01 -1.5088198366843264e+02 -1.1568159953969955e+01  8.8806390480352562e+01 -1.9520797851889228e+02 1.4701718734127653e+00  1.1734482919746200e+02 -1.9730490146278819e+02 -2.3786654560529474e+01  1.0305760790513169e+02 -1.5917791435108077e+02 -3.1829216170208248e+01  9.0913166781006154e+01 -1.0380546237731258e+02 -2.8160907620182673e+01  7.9700763927492730e+01 -9.1759273862417373e+01 -2.8824230579041924e+01  3.9360424146303568e+00 2.7266624774258016e+01 1.6303994787691611e+01  1.3860374276391271e+01 3.1856935565669914e+01 1.0870600463637706e+01  1.3202828544033046e+01 2.1595747611774808e+01 1.3270053167120349e+01  1.5009324691232724e+00 2.3375294181321209e+01 1.2244796047829780e+01  6.1896387733598068e+00 4.0592077699597311e+01 1.2533377549553254e+01  -3.6511232164968148e+00 1.7801595628689398e+01 4.0576824064269799e+00  8.1485855252754238e+00 1.9390964184039330e+01 9.7167761991387476e+00  -4.4410595766007939e+00 3.5606046154814031e+01 3.5934024809421121e+00  1.8696430262869836e+01 6.5674047138609069e+01 1.0892375949179371e+01  1.5871919548082852e+01 1.6362215110482790e+01 1.3471020318488996e+01  1.4983025976414910e+02 2.0668313350761762e+00 -7.2080043565669891e+00  1.1063567076437151e+02 2.6014031884627599e+01 2.9169920288379192e+01  1.2354339431778813e+02 3.1545005566432714e+01 3.9431215487073295e+01  1.3172207197292215e+02 1.9745567660534523e+01 2.1338748158369942e+01  1.2420199785250411e+02 1.9348415853716912e+01 3.3490811274136718e+01  1.1650362560604493e+02 1.0082399416154356e+01 1.0722339162362642e+01  1.1701053134070604e+02 3.2239100375032933e+01 4.9642860882492577e+01  1.0801490011439191e+02 2.6005527666325953e+01 3.9221137328837351e+01  1.2838178038612500e+02 3.0803880146201355e+01 3.2835844959340093e+01  9.3212195489701557e+01 2.2369146145152239e+01 2.2560885392488316e+01  4.0905759686784002e+01 6.2146755751427719e+01 4.5025534471820066e+01  6.0899959858189632e+01 5.7147308383394765e+01 2.9369942573928640e+01  4.8115570235523592e+01 5.3174079643257819e+01 4.1948326576524110e+01  4.9892194669616302e+01 5.7522160855296356e+01 4.2840175883895633e+01  4.1044953660855093e+01 7.4305323534146368e+01 3.0542122353861849e+01  6.4055370798288209e+01 8.6913491552624919e+01 9.6392238227136300e+00  5.9943734773444874e+01 6.0856498442887393e+01 3.0973546221036457e+01  6.3242702394734486e+01 4.7424544107491293e+01 4.8009026117532947e+01  5.8584827824819506e+01 4.6132040868309261e+01 4.8471475970424358e+01  5.4485385186393266e+01 3.9507032710486726e+01 4.6225287169155486e+01  3.6572346429861227e+02 -1.3608416111150550e+01 -1.5727607102883022e+02  3.2341433322412138e+02 -5.1633791465519529e+01 -6.3685068604950700e+01  2.7808599008574566e+02 -6.5921559905320493e+01 -1.3446967949396418e+02  3.3057603416484022e+02 -6.5470356134575653e+01 -7.5863591851233153e+01  3.3726261446032436e+02 -5.0675577891237424e+01 -6.0639110786397538e+01  2.9867096327380858e+02 -6.3772141797129400e+01 -8.6863902615831179e+01  3.1545697468096398e+02 -4.0189233265191497e+01 -5.5852013304254129e+01  3.1654112795985122e+02 -7.9262061755755767e+01 -1.0309257960607306e+02  2.9477253631481233e+02 -3.0535319087993489e+01 -4.9612303821370176e+01  3.7503841503435169e+01 -2.7367187317188854e+01 -1.4357775587743142e+00  5.0314304869997919e+01 -7.5834132219500560e+01 -1.7716683369661339e+01  7.7312236086535961e+01 -5.9157544000279685e+01 -1.1286207847777801e+01  5.7130920148974070e+01 -3.7812574882807702e+01 -5.9768826226129370e+00  3.9357774672109471e+01 -6.5250748887401329e+01 -2.0731244479303903e+01  2.5426647105021132e+01 -1.2021200670709443e+02 -2.3603697925201921e+01  7.8806163253345971e+01 -1.0720203043168317e+02 -2.5033691045847817e+01  7.4047600819262414e+01 -4.6947063867997343e+01 -1.4629938889095849e+01  9.9687001901439501e+01 -6.9809875590655793e+01 -1.4903355925336417e+01  1.2653463476110907e+02 -9.5445694097235929e+01 -1.3282246188041512e+01  2.4087254567427330e+01 -2.9233410820108613e+01 -4.1051795575618870e+00  1.6154838796434301e+01 -1.4145559913962092e+01 1.5538767244647758e+00  9.4842477762961721e+00 -1.6402405228923293e+01 2.6188223943346585e+00  1.0722262861077324e+01 -2.4677443932152389e+01 -3.6299304111337816e+00  7.6533763459619664e+00 -1.6881018833781756e+01 -3.9164395328773280e+00  9.7962263383455550e+00 -6.0925408576327609e+00 3.5271649241355418e+00  1.2264753227835580e+01 -1.0589223119467114e+01 1.0541182459745201e-01  6.5294425466234527e+00 -1.2828230094725720e+01 1.4729123959031427e+00  3.4148477804252986e+00 -6.2380810899233712e+00 4.5349516548675357e+00  1.3917458913616581e+01 -4.5401783162819536e+00 3.3913546065862343e+00  2.0078350004144832e+02 3.7204904041272556e+01 -1.7966504438347411e+02  1.8856203594492069e+02 5.5306770872694102e+01 -1.2355968563251785e+02  1.9264966134731131e+02 4.4052482255123024e+01 -1.1224434823802663e+02  2.5247353098766868e+02 4.7906327974338723e+01 -1.5363478229380658e+02  1.7173677338049347e+02 3.5053677904323017e+01 -1.8421919577941478e+02  1.5078004071193905e+02 5.8660420628540848e+01 -1.6444530007683690e+02  2.2091823223919144e+02 5.8521365920980216e+01 -1.7706389348863067e+02  2.9010118291590038e+02 3.8690361816652612e+01 -1.4742938725425518e+02  2.3539464195301417e+02 4.1938623546188850e+01 -1.0212118283835426e+02  1.8802482001131091e+02 4.8522716059765067e+01 -7.0965460255404423e+01  2.7588954331071434e+01 6.9971610461646748e+01 6.1295807195469301e+01  3.1617975910387518e+01 6.1765551536688250e+01 5.2560288869591254e+01  2.7600661138685609e+01 5.5519455228264839e+01 5.3034451280030261e+01  2.8898344097869426e+01 6.2808089822071508e+01 5.6053573566656723e+01  2.7565374657756117e+01 6.2918005461361098e+01 5.6245016450876541e+01  1.5657010568649817e+01 5.7216324822570314e+01 6.2950488615175274e+01  1.0490560889289787e+01 4.1721787172666723e+01 5.3019403729414236e+01  2.4409168233584868e+01 5.2628202025157805e+01 4.8864605551747871e+01  3.2010313341804455e+01 5.9602144059227768e+01 5.2095577947731293e+01  3.3089340809322344e+01 6.3971666828665327e+01 5.2625054769532092e+01  2.2530219249225735e+02 -2.5339039776979664e+02 -3.3235008376163186e+01  1.3808609078787251e+02 -2.0392650224997888e+02 -3.0081541278325314e+01  1.1749931698124135e+02 -2.1157424569999449e+02 -2.5332213275620866e+01  1.5483791696353566e+02 -2.2315887921891789e+02 -1.9863760864749512e+01  1.6816556250105879e+02 -2.9420862315887484e+02 -5.3698222107258459e+01  1.2321266943796732e+02 -2.6661394007071948e+02 -3.7454345799764432e+00  3.8155923815182817e+01 -2.3222362553462034e+02 -8.7513504208110025e+00  6.2220380474372398e+01 -2.5698132170719219e+02 -1.3683011384814250e+01  1.3780996385777752e+02 -2.5954332184282111e+02 -4.8123534670513763e+01  1.4602639937927179e+02 -1.9506052639168456e+02 -1.1979667823934397e+01  5.0809241794791959e+01 1.9325759339603810e+01 9.2503787739044242e+01  8.1335096978677896e+01 1.7996832664990649e+01 6.8516036203223351e+01  7.7748146708269800e+01 2.6354424014680550e+01 4.9218646626096316e+01  6.3157662665617750e+01 3.7140382551287949e+01 6.4741959028522928e+01  7.7162894245162647e+01 3.3820321351510522e+01 5.2593903204154095e+01  7.6916157598641036e+01 4.3596405102984129e+01 3.6334830941822048e+01  9.5053819874425827e+01 3.6927469443977387e+01 2.2770224894141592e+01  8.9350707616356360e+01 2.6551682282584213e+01 4.0028418943811552e+01  