<?xml version="1.0"?>
<VTKFile type="UnstructuredGrid"  version="0.1"  >
<UnstructuredGrid>
<Piece  NumberOfPoints="5464" NumberOfCells="24614">
<Points>
<DataArray  type="Float64"  NumberOfComponents="3"  format="ascii">7.7220447594 20.8047745015 11.3950824686  7.73141909445 19.9239400538 10.78497589965  8.325692960049999 20.2042545683 11.0019397735  7.98233992205 20.2536594537 11.39026526775  8.065397797399999 20.7553696161 11.00675697435  8.408750835399999 20.7059647307 10.6184314801  8.2426350847 19.7025444059 11.3854480669  6.7313261505 20.0088074844 9.922167519  6.4429813525 19.9114137623 11.0575879053  6.892706752 19.57536143065 10.4368439191  6.273785399599999 19.56997889195 10.746227766  7.0540873535 19.1419153769 10.9515203192  7.2982311116 21.498744738 11.0371881685  7.34690604775 20.871724309 9.904147929100001  7.6303585283 21.6166929358 10.46165825385  7.8534909735 21.10235473435 10.8278098243  8.1856183902 21.22030293215 10.25227990965  7.962485945 21.7346411336 9.886128339200001  6.5669621014 19.03465176045 10.1534105899  6.4025980523 18.0604960365 10.3846536608  6.7283427029 18.6012057067 10.66808699  7.570038492949999 20.35738610755 10.27029949955  7.22668545495 20.40679099295 10.6586249938  4.9652999253 21.6021462009 8.5797127842  5.18932289555 21.2916136958 9.228250476349999  5.64313231215 21.80011693055 9.00451131725  5.143670848999999 21.94499121305 9.454828682399999  5.4133458658 20.9810811907 9.876788168499999  5.9156079031 19.250730928 9.954011317199999  6.5477348715 21.9299810684 10.5135067544  7.141725322 21.8663643969 9.65771909475  7.25511040825 21.832311101 10.1998175468  6.52614542475 21.0034475723 9.67573868465  6.43434978525 21.9640343643 9.97140830235  6.320964699 21.9980876602 9.429309850299999  6.922982991550001 21.7143629032 10.77534746145  5.6214498991 19.4617001316 5.9651636404  6.1539497201 19.5610784621 5.53036919615  6.6815927327 19.31797988825 5.91112404545  5.65710761285 19.1011353474 5.68554191395  5.6927653266 18.7405705632 5.4059201875  6.18960743385 19.2005136779 5.2507474697  6.71725044645 18.95741510405 5.631502319  7.7417355663 19.1742596449 5.8570844505  7.2140925537 19.41735821875 5.4763296012  6.6864495411 19.6604567926 5.0955747519  10.7680058427 22.5637879764 9.3993259707  10.55738086615 22.6321900051 8.244344774750001  11.0326324013 22.22321082365 8.672671404700001  10.94332465295 22.88422855495 8.522968207449999  10.29275430755 22.97276715785 8.97099934075  9.817502772399999 23.3817463393 8.5426727108  10.4680731178 23.2932077364 8.094641577499999  11.1186434632 23.2046691335 7.6466104442  11.20795121155 22.5436514022 7.79631364145  11.2972589599 21.8826336709 7.9460168387  8.457503297500001 13.6118117249 9.1988100226  7.484885961450001 14.8063318363 9.600825008600001  7.87472189915 14.3896103144 8.81448243595  7.51997025905 13.9478180635 9.58535278405  8.4224189999 14.4703254977 9.214282247149999  8.3873347023 15.3288392705 9.2297544717  7.839637601550001 15.2481240872 8.8299546605  6.5824372206 14.2838244021 9.971895545500001  6.9371888607 14.725616653 9.2010251974  7.2919405008 15.1674089039 8.430154849299999  8.6175861646 22.5633382612 8.919978617  9.467910260349999 22.1051448395 8.62837591415  9.7137000236 22.72601755595 8.955906169999999  8.97175470525 22.3516695838 8.40379540805  9.1137417197 22.3168135169 9.144559123099999  9.2175444685 22.97254230025 8.7313256639  9.6098972748 22.0702887726 9.369139629199999  9.571713009149999 22.76087362285 8.21514245495  9.3259232459 22.1400009064 7.8876121991  5.6131740966 16.5255344558 3.6460270206  6.12670104285 16.66597449195 2.80360329295  6.2125440458 16.76254627385 3.2384494827  6.33605196535 15.99562034205 3.2518410423  5.52733109365 16.4289626739 3.21118083085  5.4414880907 16.332390892 2.7763346411  6.2502089624 15.89904856015 2.81699485255  7.0589298341 15.4657062283 2.857655064  6.93542191455 16.2326321601 2.8442635044  6.811913995 16.9995580919 2.8308719448  4.4758032939 21.0526081633 -0.6591004764  5.028753521300001 20.18728609435 0.5868333113499999  4.76413599655 20.831235527 0.5868333113499999  5.086081878 20.9780650364 -0.6591004764  4.74042081865 20.40865873065 -0.6591004764  5.6963604621 20.9035219095 -0.6591004764  5.374414580650001 20.7566924001 0.5868333113499999  5.35069940275 20.33411560375 -0.6591004764  5.0050383434 19.764709298 -0.6591004764  5.0524686992 20.6098628907 1.8327670991  6.6965927361 21.0952348673 5.4441326416  7.4678957011 20.12635654885 5.1788548633  7.0623906038 20.29405816755 4.40075684275  7.4729672986 20.8437455862 5.35313380815  6.691521138600001 20.37784582995 5.26985369675  7.0674622013 21.0114472049 4.5750357876  7.4383316665 20.9276595425 3.7059389336  7.8438367638 20.7599579238 4.48403695415  8.2493418611 20.5922563051 5.2621349747  9.931883983100001 16.0274009405 5.3389120487  8.66748588045 15.21288782005 6.03307753675  9.624477213950001 15.07802365155 5.6069310943  9.252854816700001 15.4851411467 6.3182984555  8.974892649600001 16.162265109 5.76505849115  8.0179013161 16.2971292775 6.1912049336  8.2958634832 15.6200053152 6.74444489795  8.5738256503 14.9428813529 7.2976848623  8.94544804755 14.53576385775 6.5863175011  9.317070444800001 14.1286463626 5.8749501399  5.3721963407 22.0849118542 7.2555113654  6.034394538400001 21.59007336075 6.3498220035  5.33183076225 21.17686383655 6.94950718605  5.05397804575 21.72934243205 7.0347755148  4.7357597508 21.3737730099 6.8140396642  5.716176243450001 21.2345039386 6.1290861529  5.0136124673 20.8212944144 6.72877133545  5.2914651838 20.2688158189 6.6435030067  5.994028959950001 20.6820253431 6.04381782415  6.0552218546 17.4021736966 8.0237424237  6.5683759649 17.31017721435 7.21117011545  6.8149519066 17.7348927035 7.65933496235  6.0192329745 17.7473191091 7.2264822705  5.9832440944 18.0924645216 6.4292221173  6.5323870848 17.65532262685 6.41390996225  6.7789630265 18.080038116 6.86207480915  7.5746819586 18.0676117104 7.294927501  7.3281060169 17.64289622125 6.8467626541  7.0815300752 17.2181807321 6.3985978072  6.7235248388 21.72325955255 4.41920449045  7.16694498725 22.0336534855 5.035578535100001  6.3526553736 21.80704721495 5.28830134445  7.6372972384 22.9720721037 4.6270244286  7.53781445245 21.9498658231 4.166481681100001  6.82300762475 22.74546583315 4.87974723795  6.0087180111 22.5188595626 5.1324700473  10.3357449981 17.2857104958 5.8862666462  9.695412984899999 16.6383139602 6.728739431199999  10.3818696329 16.77273968655 6.9912728055  10.26431756665 17.4655345553 6.6270318654  9.57786091865 17.33110882895 6.3644984911  10.45329706435 16.59291562705 6.250507586299999  10.5708491306 15.9001207583 6.6147485264  10.1928901352 17.6453586148 7.3677970846  9.506433487200001 17.51093288845 7.1052637103  8.819976839200001 17.3765071621 6.842730336  9.004571864000001 20.4689463967 3.8349819111  8.00476663605 20.1057532499 3.4510697206  8.24204495975 20.04339133385 3.931627851  8.22145176525 20.6983029696 3.77046042235  8.787886734800001 19.876396677 3.51559120935  9.025165058500001 19.81403476095 3.99614933975  9.045758253000001 19.1591231252 4.1573167684  8.808479929300001 19.22148504125 3.676758638  8.571201605600001 19.2838469573 3.1962005076  8.09205633 17.5926258675 10.8515294769  7.68679373125 17.08705395275 10.1395001349  7.40431488345 16.39171471535 10.49491232165  8.087900637899999 16.4021992569 10.17155762125  7.2815311325 16.581482038 9.427470792899999  6.1023138483 16.5822120483 7.034850981  6.591445880649999 16.25719574965 6.60610545835  7.0596315011 15.79667002235 6.50240902155  6.59192196175 16.9001963902 6.7167243941  6.101837767199999 15.93921140775 6.92423204525  7.0601075822 16.4396706629 6.6130279573  6.1013616861 15.2962107672 6.8136131095  7.54971569565 16.7576550048 6.2949013704  5.9143410673 21.963552724 3.4519776444  6.98976974705 22.0516534252 3.5415339444  6.29549534375 22.7072054009 3.52872966485  6.63970606795 22.3035806144 3.011512721  7.3650710686 22.6436085048 2.5710477976  7.370924023500001 22.7953061021 3.61828596485  7.715134747700001 22.3916813156 3.101069021  7.0208603444 23.0472332913 3.08826474145  6.6766496202 23.4508580778 3.6054816853  8.0651984268 22.1397541264 3.6310902444  12.3658287119 20.3545918242 7.7283278208  11.8315438359 21.11861274755 7.83717232975  11.7653991287 20.2326077933 8.1228873401  11.9148172582 20.3085153112 7.41367279305  11.4638058045 20.2624387982 7.0990177653  11.2311142527 20.99662871665 8.23173184905  11.3805323822 21.07253623455 7.522517302000001  11.314387675 20.1865312803 7.80823231235  11.1649695455 20.1106237624 8.5174468594  7.172521506 23.0132882666 7.59004656  7.7264332336 21.9207229539 6.819100823  7.1838798696 22.7440559117 6.7132357597  6.98096872695 21.7582284448 7.221231647550001  7.71507487 22.1899553088 7.695911623300001  6.7894159479 20.503168623 6.8524167351  6.992327090550001 21.4889960899 6.34442084725  7.52352209095 20.934895487 7.32709671085  8.257628234 21.366622351 7.8017766866  7.1952382332 22.4748235568 5.8364249594  4.890237902 19.4715685671 4.7798917177  5.81944877315 19.287709118 4.3020777276  4.9228017531 18.94372531735 4.18030056415  5.207277409850001 18.7739213097 4.848336568400001  5.5243169177 18.0762740523 4.9167814191  5.852012624249999 18.75986586825 3.70248657405  6.136488281 18.5900618606 4.3705225783  5.23984126095 18.24607805995 4.24874541485  4.9553656042 18.4158820676 3.5807094106  6.7486596443 19.1038496689 3.8242637375  11.37804719 23.1372713578 4.8030764113  10.0909079043 23.1261899473 4.54268356345  10.58726874875 22.9810021428 5.14634618  10.8118142623 22.74982246725 4.547645316200001  10.88168634555 23.2824591623 4.19941379475  10.3853255011 23.4276469668 3.5957511782  10.31545341785 22.89501027175 3.94398269965  10.2455813346 22.3623735767 4.2922142211  10.02103582105 22.59355325225 4.8909150849  9.796490307499999 22.8247329278 5.4896159487  6.0813067587 15.7925895767 8.336224849800001  6.8373164512 15.8233227479 7.3109938449  6.8272889875 16.07151215265 8.072299715050001  6.0918103035 16.18740081
[...]
<PointData  Scalars="p_CO2"> 
<DataArray  type="Float64"  Name="p_CO2"  format="ascii">4.0004529906980345e+01  4.0002106013921917e+01  4.0010477308668449e+01  4.0014014620586131e+01  3.9998760851204757e+01  4.0004196246060232e+01  4.0017098200269224e+01  4.0029186835733341e+01  4.0056938441601147e+01  4.0033169813232071e+01  4.0057227754635953e+01  4.0037809233679120e+01  4.0011256846108687e+01  3.9985673764834914e+01  4.0010791037823680e+01  4.0018138113758276e+01  3.9998288145583700e+01  4.0018350767296511e+01  4.0045361260530321e+01  4.0042641522931511e+01  4.0042686843223258e+01  3.9995318265922300e+01  4.0015156785718233e+01  3.9971391739915774e+01  3.9907639173016143e+01  3.9939905775853298e+01  4.0060242947612437e+01  4.0023822768968792e+01  4.0044717619908482e+01  4.0008187074010117e+01  3.9996961628955489e+01  3.9986028540950663e+01  4.0022273679926357e+01  4.0010189676431594e+01  4.0013182348368062e+01  4.0021640623474866e+01  3.9991717351023922e+01  3.9987752621221240e+01  4.0004702091119952e+01  3.9989346291315684e+01  3.9991952413683507e+01  3.9993976668105304e+01  4.0007763172996256e+01  4.0002336587783752e+01  4.0001007026353740e+01  4.0005743037741553e+01  4.0007410655814347e+01  3.9980024130847426e+01  3.9995027042240118e+01  4.0006417373283995e+01  3.9990193414972346e+01  3.9999432464102796e+01  3.9996153159342718e+01  3.9996596732905040e+01  3.9995917169995565e+01  3.9997204411612820e+01  4.0010725117435129e+01  4.0021532220923511e+01  4.0015781140231574e+01  4.0018626226763736e+01  4.0017693434998456e+01  4.0012976425272555e+01  4.0013511945427446e+01  4.0027153442979191e+01  4.0012983531078348e+01  4.0013602860324916e+01  4.0001862533616922e+01  4.0014545281388223e+01  4.0010404412046690e+01  4.0003782103940537e+01  4.0005646606985778e+01  4.0005819631411541e+01  4.0005363717232285e+01  3.9983917847838804e+01  4.0004216874673695e+01  3.9996988612942822e+01  3.9998696983483462e+01  3.9999069324576432e+01  4.0000800626613604e+01  3.9996952164833850e+01  3.9997261688200027e+01  4.0002845213417551e+01  4.0004354524669182e+01  4.0004002177014321e+01  4.0002489767151388e+01  4.0000820026968377e+01  4.0000884641272577e+01  3.9999780413056790e+01  4.0002999889078190e+01  3.9996619718015125e+01  4.0002848609034629e+01  3.9999459191690136e+01  4.0003835797284147e+01  4.0002174034400696e+01  4.0005775823764566e+01  4.0005078946311642e+01  4.0000755780538825e+01  4.0003876876860652e+01  4.0007298603490305e+01  4.0003780407392107e+01  4.0006277109786303e+01  4.0003986959910243e+01  4.0004241496300516e+01  4.0001659545913370e+01  4.0022424920245186e+01  3.9996525929629883e+01  3.9979234373093526e+01  3.9968271986728773e+01  4.0000886029612921e+01  4.0008810995571487e+01  4.0006987636695662e+01  4.0001041845744972e+01  4.0005938062795479e+01  4.0001611336823153e+01  3.9996296900372492e+01  4.0000435986504229e+01  4.0048333344441566e+01  3.9986896920832500e+01  3.9976387019837333e+01  4.0008483761083220e+01  4.0015980602501074e+01  3.9998538846490042e+01  4.0008391683944012e+01  3.9999699812383163e+01  4.0010418579544556e+01  4.0013962687955562e+01  4.0003873670185939e+01  3.9989219708040388e+01  3.9996084189363728e+01  4.0004950966164166e+01  4.0003866730644575e+01  4.0001534257810526e+01  4.0002487642891758e+01  4.0012564605177786e+01  4.0010229026948068e+01  4.0019804732274991e+01  4.0006615494670903e+01  4.0008065361026397e+01  4.0014746477326668e+01  4.0022877110027970e+01  4.0009800963177376e+01  4.0025919816162151e+01  4.0007042553561675e+01  4.0007931558740118e+01  3.9996804264019929e+01  4.0010037858086598e+01  4.0025528998327673e+01  3.9998098200584565e+01  4.0004601064159147e+01  4.0003462618866529e+01  4.0002978679065144e+01  3.9999020404298918e+01  3.9999309392441518e+01  4.0002212983568917e+01  4.0000821840696922e+01  4.0002371598040547e+01  4.0002515206756506e+01  3.9998618936463416e+01  4.0001130319298831e+01  4.0030439667959492e+01  4.0028882746793307e+01  4.0043731211329970e+01  4.0026349064390367e+01  4.0018914755497633e+01  3.9997935824386374e+01  4.0005778162113927e+01  4.0004264981997643e+01  4.0002186244851302e+01  4.0000445844494379e+01  4.0002472415043378e+01  3.9999246557096221e+01  4.0004623073924279e+01  4.0014443067832637e+01  4.0007247893521260e+01  4.0014121604496729e+01  4.0010713146058087e+01  4.0003966593700895e+01  4.0007969498103058e+01  4.0004542338501942e+01  4.0007745912484559e+01  4.0012201083634160e+01  4.0004383185431600e+01  3.9992247369355859e+01  3.9978437822898144e+01  3.9991343405907401e+01  4.0014913834988675e+01  4.0021701784834129e+01  4.0006422115237449e+01  4.0000944900956171e+01  4.0009809244817554e+01  4.0009335338741622e+01  4.0001961429005817e+01  3.9996671384871640e+01  4.0005992682295506e+01  4.0005359833828706e+01  4.0009950855643154e+01  4.0013627067238744e+01  4.0001158416101752e+01  4.0009248603947725e+01  4.0010445664767317e+01  4.0008039762540911e+01  3.9993448144883651e+01  4.0009923245316600e+01  3.9998228457043787e+01  4.0011254864529974e+01  3.9997852533676010e+01  3.9999354268075152e+01  3.9998101737034816e+01  3.9998559214700855e+01  3.9995656869119586e+01  4.0002260453087636e+01  3.9995865785865952e+01  4.0015617387850583e+01  3.9989984763053698e+01  4.0009617821668471e+01  3.9995647708617945e+01  4.0001012906795367e+01  4.0003203733976150e+01  4.0000996612014191e+01  4.0004779783568971e+01  4.0001580286502431e+01  3.9986786649382807e+01  4.0007831224309129e+01  4.0006622447963601e+01  4.0002280359205152e+01  4.0010309576998019e+01  4.0004137229578227e+01  4.0010036167786282e+01  4.0008519836745805e+01  4.0008499538277590e+01  4.0011121366793688e+01  4.0004914796451452e+01  4.0010404895176791e+01  4.0014013677959092e+01  4.0015282297065951e+01  4.0009242968340871e+01  4.0012910179988722e+01  3.9981407207542354e+01  4.0010182697085931e+01  4.0002756782587753e+01  4.0002781829427327e+01  4.0006798164067462e+01  4.0010634046674333e+01  4.0008103690571019e+01  4.0008261532122866e+01  4.0001407891110532e+01  3.9996251991772368e+01  4.0008846734180175e+01  4.0087051925734905e+01  3.9995176517955237e+01  4.0008077308296180e+01  4.0008354895764754e+01  4.0023627258548913e+01  4.0010403260453778e+01  3.9996296022839147e+01  4.0037077378187043e+01  3.9970569471903254e+01  3.9973510418022343e+01  4.0027187183091719e+01  4.0004833624066229e+01  4.0017824775268572e+01  3.9996594865616409e+01  4.0006205014009211e+01  4.0004965191133330e+01  4.0002852267496714e+01  4.0003455837761877e+01  4.0000153620193160e+01  4.0001715202124807e+01  4.0002500484049641e+01  3.9999674759420280e+01  4.0000936741340723e+01  4.0013322042072758e+01  3.9958316547424431e+01  3.9976975211380108e+01  3.9965107604060748e+01  4.0039657006302278e+01  4.0063189780756950e+01  4.0009625013185257e+01  3.9997604888461758e+01  4.0032189185684295e+01  3.9997818205050137e+01  3.9996425214283903e+01  3.9995997484475886e+01  4.0007393404927633e+01  3.9999236778716977e+01  3.9991936054320313e+01  3.9994698501873494e+01  4.0006592462114739e+01  4.0004175620630164e+01  4.0000022945084460e+01  3.9999295282917444e+01  4.0004778212862739e+01  4.0002246483944653e+01  4.0002075224774600e+01  4.0012135958930550e+01  3.9993956162643201e+01  3.9997521127587035e+01  3.9997972956780643e+01  3.9992076402809907e+01  3.9997273040249148e+01  4.0002220038976517e+01  3.9996886154112268e+01  3.9995430472965097e+01  3.9990778629062824e+01  4.0001269904434750e+01  4.0004492939729126e+01  3.9994254659727666e+01  3.9992282091201133e+01  3.9996216944480686e+01  4.0006399263069895e+01  4.0008891649034396e+01  4.0009482556186235e+01  4.0003580786404392e+01  4.0005082721871673e+01  4.0001571579610534e+01  4.0002067668982370e+01  4.0003027831244324e+01  3.9999965305614047e+01  4.0001608840955839e+01  3.9999191831928982e+01  3.9997583539632657e+01  4.0000269916264806e+01  4.0000385743477800e+01  4.0002255730080918e+01  4.0004704880726031e+01  4.0004131432675642e+01  4.0001056266894999e+01  3.9994611843827286e+01  3.9991887428947884e+01  4.0022886305064482e+01  4.0002295958570386e+01  4.0022885333979985e+01  4.0004244823579043e+01  4.0011337255897622e+01  4.0019271615521539e+01  4.0015352396168872e+01  4.0023024482024752e+01  4.0015528436311442e+01  4.0019194431595764e+01  4.0010868535671044e+01  4.0009690869527759e+01  4.0001346046253410e+01  4.0005768916444715e+01  4.0000564475522360e+01  4.0023795633584712e+01  3.9986634063392565e+01  3.9990029523415210e+01  4.0005264731346514e+01  4.0013876155895531e+01  4.0000787276090016e+01  4.0000727787490746e+01  4.0002602986886941e+01  4.0001572807053904e+01  3.9998015385572735e+01  4.0001468002608831e+01  4.0001687607446669e+01  3.9998559006414979e+01  4.0001168663307929e+01  4.0001690794907027e+01  4.0003100347492229e+01  4.0002715019228305e+01  4.0003654010220430e+01  3.9998421957358921e+01  4.0029102287462770e+01  3.9964511678805543e+01  3.9938122961487615e+01  4.0077824845095648e+01  4.0024885812963682e+01  4.0086167328007058e+01  4.0036026708533811e+01  4.0001722079652424e+01  4.0000422316574102e+01  4.0002666507497572e+01  4.0004898694641064e+01  4.0007674700120909e+01  4.0006725702749655e+01  4.0002642891149634e+01  4.0010259527223141e+01  4.0000238050066557e+01  4.0008028712665656e+01  4.0009978806057426e+01  4.0014501301131276e+01  4.0022099315577243e+01  4.0019050179093696e+01  4.0023526791710701e+01  4.0017366763576312e+01  4.0017372836190120e+01  4.0028727198773957e+01  4.0007193583585369e+01  4.0017712822405187e+01  4.0017697671353069e+01  4.0013616162597714e+01  4.0004151693213544e+01  4.0010472043068440e+01  4.0028394346369197e+01  4.0015550061754396e+01  4.0009656730949438e+01  4.0034714247446132e+01  4.0002053288642514e+01  3.9999876938808612e+01  3.9994836863149125e+01  4.0003534493039346e+01  4.0001554147080462e+01  4.0000211735600814e+01  4.0007429877383522e+01  4.0003346983381363e+01  4.0003555277390141e+01  4.0008657369816241e+01  4.0006774574605281e+01  4.0003647933503565e+01  4.0005637434230167e+01  4.0003288574261177e+01  4.0003500358224059e+01  4.0003781942240614e+01  4.0010408454357432e+01  4.0003130900010696e+01  4.0024557429135207e+01  3.9973720782649259e+01  4.0006698081587302e+01  4.0005951578481685e+01  4.0010297992031219e+01  4.0011263772160767e+01  4.0006705135798882e+01  4.0010114754088200e+01  4.0011139650385665e+01  4.0010213552527105e+01  4.0008448767362765e+01  4.0006234706596324e+01  4.0007211957064932e+01  3.9991149450178845e+01  3.9996564115289893e+01  4.0000738027473865e+01  4.0002110983251654e+01  3.9984281499245576e+01  4.0008565320194187e+01  4.0004251369412735e+01  4.0003189275887465e+01  4.0002231763413150e+01  4.0000542267408115e+01  4.0002016514218624e+01  4.0000908487855476e+01  4.0003338686643893e+01  4.0001194873468833e+01  4.0001366410003847e+01  4.0001717168442561e+01  4.0000778823129039e+01  4.0020002339321742e+01  4.0011202726801642e+01  4.0021952345370309e+01  4.0028603460951885e+01  4.0023136359057716e+01  4.0015827738835924e+01  4.0011794485893873e+01  4.0021707552754478e+01  4.0018271308061941e+01  4.0008337737432903e+01  4.0171088153045829e+01  4.0190815401008997e+01  4.0329768411649347e+01  4.0035640115478486e+01  4.0095982905381156e+01  4.0039120348846744e+01  4.0277124556121180e+01  3.9997181048236008e+01  4.0003751970527070e+01  3.9999664534764555e+01  3.9998896834689475e+01  4.0010991434380927e+01  3.9995117088300717e+01  3.9998511386433862e+01  4.0008094338859138e+01  4.0056999088268299e+01  4.0045753839735653e+01  3.9975355274046265e+01  3.9999188162959179e+01  4.0011638629639549e+01  4.0031256064597954e+01  4.0009218204786812e+01  3.9998415169347147e+01  3.9998659508712542e+01  4.0003824779685232e+01  4.0014847611544987e+01  4.0000349043357424e+01  4.5000000000000007e+01  4.0975076833965524e+01  4.1029433611397053e+01  4.0196364816435135e+01  4.5000000000000000e+01  4.5000000000000007e+01  4.0498200989670735e+01  4.0053811041069082e+01  4.0398262190748873e+01  4.0441547832263332e+01  4.0025082216243256e+01  4.0033863662591607e+01  4.0015509253133700e+01  4.0022680480559465e+01  4.0034478232297666e+01  4.0029907862612433e+01  4.0015353222717700e+01  4.0005458117845478e+01  3.9999800509761080e+01  4.0005807535384129e+01  4.0003348934116964e+01  3.9984316686041510e+01  3.9970006766496340e+01  4.0014282158531529e+01  4.0001861209471798e+01  3.9999572578775336e+01  3.9995830114198064e+01  4.0002441782438076e+01  4.0001944727302835e+01  3.9994012624928146e+01  3.9997166997657395e+01  4.0004499285276374e+01  4.0013238302365544e+01  4.0009849743277826e+01  4.0003145198154272e+01  4.0004982644622217e+01  4.0007465467344801e+01  4.0005638167044019e+01  4.0005367875258521e+01  4.0000652956796792e+01  4.0003604913193612e+01  4.0003318720923083e+01  4.0007938348792976e+01  4.0048481144752387e+01  4.0024429284222904e+01  4.0050388468466217e+01  3.9999447411448067e+01  3.9999639532576040e+01  3.9992345202667188e+01  4.0002946327252843e+01  4.0003752407507747e+01  4.0003379143088829e+01  4.0002842475837276e+01  4.0002583220818451e+01  3.9998884441208283e+01  4.0000164132896977e+01  3.9997810805236320e+01  4.0005605570367550e+01  3.9999599602302304e+01  4.0006427770073735e+01  4.0002271491236819e+01  3.9999953252565305e+01  3.9975200468480558e+01  4.0001049888262102e+01  4.0026042504369585e+01  4.0003302465852258e+01  4.0012651957126195e+01  3.9995754186015610e+01  4.0003718169264502e+01  4.0019580595699885e+01  3.9991930529834143e+01  3.9983591969619766e+01  4.0112444753149568e+01  4.0247851859383459e+01  4.0035950517523077e+01  4.0065519049912353e+01  4.0137655209324031e+01  4.0350743393781400e+01  4.0057769421694495e+01  4.0212164559896962e+01  4.0015504612829730e+01  3.9992978199817273e+01  4.0006875502639396e+01  4.0000763433613116e+01  3.9977349734931508e+01  4.0000385190178314e+01  3.9997397429348119e+01  3.9996795540000846e+01  4.0006088860441579e+01  4.0006197173464727e+01  4.0000743438794828e+01  4.0005314474985170e+01  4.0004474021714728e+01  3.9998537566799889e+01  4.0001289759640564e+01  4.0000289095555452e+01  4.0003962930790550e+01  4.0000957666437898e+01  4.0012680928445057e+01  4.0000653900031175e+01  4.0002701610255613e+01  4.0006407648587050e+01  3.9999885112580785e+01  4.0006161263541898e+01  4.0008771332145656e+01  4.0010287570739116e+01  4.0009484951685145e+01  4.0009655156951560e+01  4.0015559461699254e+01  4.0018045857381594e+01  4.0004692710537853e+01  4.0008194357868163e+01  4.0014412676971290e+01  4.0014050951830740e+01  4.0006792883034421e+01  4.0029131519066901e+01  4.0003696655630414e+01  3.9999068004886738e+01  3.9998214025888643e+01  4.0000888650413430e+01  4.0029515937098694e+01  4.0006082177825100e+01  3.9993573001394665e+01  4.0069111135951225e+01  4.0110704352490743e+01  4.0023626564321489e+01  4.0015120171703295e+01  4.0042329918247667e+01  4.0084800180543446e+01  4.0083890576344061e+01  4.0064195522351639e+01  3.9998523668745598e+01  4.0044900543619406e+01  4.0063875583428548e+01  4.0009445137565180e+01  3.9961518145454207e+01  4.0008311550184850e+01  4.0014492752204475e+01  4.0005358866778110e+01  4.0019896578955652e+01  3.9993016603393691e+01  4.0045366493457578e+01  4.0011051495880203e+01  4.0018917692339237e+01  4.0023670530905889e+01  4.0015443005147482e+01  4.0008078665499298e+01  4.0006376288044031e+01  4.0004319675727189e+01  4.0008379368438625e+01  4.0007280124008531e+01  4.0006019528608853e+01  4.0000296562546772e+01  3.9999826911647105e+01  3.9997612871801039e+01  3.9997523432117113e+01  4.0004853192057894e+01  4.0001785350158194e+01  4.0005201605444888e+01  4.0006254692019901e+01  4.0004998213535629e+01  4.0003437359124874e+01  4.0001425381450652e+01  4.0010168675095173e+01  4.0007709858579226e+01  4.0001546704359612e+01  4.0006098042783826e+01  4.0006551509304551e+01  3.9992074465023421e+01  3.9997938757793797e+01  3.9999078229145383e+01  3.9981023889903589e+01  3.9998313260624265e+01  3.9990739582718724e+01  4.0012891373026527e+01  3.9998278850870662e+01  3.9993763984673464e+01  3.9989763588592197e+01  3.9990435288269204e+01  3.9981999087618149e+01  3.9991205166890794e+01  4.0001823287666014e+01  3.9995048588522636e+01  4.0001302449086957e+01  4.0007818705572717e+01  4.0004936097573285e+01  4.0006376698658556e+01  4.0004271493473169e+01  4.0006895429113804e+01  4.0009174394036350e+01  4.0008531460772033e+01  4.0009003668038240e+01  4.0013382547482720e+01  4.0011510674699835e+01  3.9994861238022807e+01  4.0012657783018106e+01  4.0004694429052314e+01  4.0005596844600682e+01  3.9982117049247144e+01  4.0003396250324855e+01  4.0004636302457804e+01  4.5000000000000000e+01  4.1157275430608266e+01  4.1369262582253661e+01  4.0814743696059850e+01  4.0465230461907595e+01  4.0356860261277951e+01  4.0382139890785197e+01  4.0485721504801219e+01  4.0008289744546559e+01  4.0006602612263755e+01  3.9978233191876306e+01  3.9998955578055799e+01  4.0002695555667863e+01  4.0001144119366941e+01  4.0001972065554867e+01  4.0003493508266899e+01  4.0004162139850017e+01  3.9996724897827512e+01  4.0001699790000032e+01  3.9999811208402171e+01  3.9998252535590751e+01  3.9998896661534623e+01  4.0030069457899174e+01  4.0648383899083534e+01  4.0800363538520479e+01  4.0649963825472483e+01  4.0083865114085192e+01  4.0144856521124851e+01  4.0099257780041150e+01  4.0174555438654181e+01  4.5000000000000000e+01  3.9999884468359561e+01  4.0003205752390933e+01  4.0004380007782586e+01  4.0001016185595589e+01  4.0007235732906381e+01  4.0012329595841976e+01  3.9998180075289945e+01  4.0027476775216506e+01  4.0015639651218734e+01  4.0003292931689749e+01  4.0003773274792195e+01  3.9997684930445892e+01  4.0003954650430906e+01  4.0027467794297948e+01  4.0001711892290011e+01  4.0015612123554952e+01  4.0066005127219078e+01  4.0039627087653422e+01  4.0071342774200360e+01  3.9977819641430180e+01  3.9997984337457545e+01  3.9998776351833826e+01  4.0005041626189787e+01  4.0000358973679930e+01  4.0002139376519480e+01  4.0001813659676401e+01  4.0001003771763479e+01  3.9997440444442802e+01  3.9976475655409530e+01  3.9887985064020043e+01  3.9960941801644353e+01  3.9792392499257865e+01  4.0665792162048767e+01  4.0138446281974858e+01  4.0008272623698019e+01  4.0014878038954087e+01  4.0008084619911642e+01  4.0008885915434725e+01  4.0015669991066773e+01  4.0006811596749806e+01  4.0013525715720405e+01  4.0007228820228093e+01  4.0005203853008240e+01  4.0000361573648469e+01  3.9999637347238114e+01  4.0009195863241111e+01  4.0004373650083480e+01  3.9998240150000434e+01  4.0007354618415782e+01  3.9998515622688053e+01  4.0001996262169307e+01  4.0007776830968375e+01  4.0008979242509554e+01  4.0014887932281788e+01  4.0011558523621957e+01  4.0003975929462399e+01  4.0019024929824752e+01  4.0018938924432298e+01  4.0005418307920372e+01  3.9993941021851228e+01  4.0013089446144086e+01  4.0017961703292755e+01  4.0002476108486306e+01  4.0002178566701801e+01  4.0007536266195977e+01  4.0000616189828513e+01  3.9999487606542402e+01  4.0010755509144673e+01  4.0006068451621474e+01  4.0007204112353151e+01  4.0002652750038727e+01  4.0000780128237714e+01  4.0001707268737952e+01  4.0001856619937314e+01  4.0004029088980815e+01  4.0002517910364666e+01  3.9999517479419993e+01  4.0005713063980188e+01  4.0013550962258570e+01  4.0044917742438756e+01  4.0032461726007561e+01  4.0036897997700734e+01  4.0025375511600934e+01  4.0030414258174090e+01  4.0026090906785470e+01  4.0056930617348179e+01  4.0121520921488369e+01  4.0207360188110883e+01  4.0121075213132379e+01  4.0214398850752431e+01  4.0107713654373029e+01  4.0155196535411420e+01  4.0127285033681950e+01  3.9998552423372963e+01  4.0001869265895365e+01  4.0005900999425343e+01  4.0002493826039561e+01  4.0003542922594477e+01  4.0004074016467406e+01  4.0004198043055723e+01  3.9998315391066200e+01  4.0007244541234094e+01  3.9994897177635366e+01  3.9981738913906732e+01  3.9974900326312024e+01  3.9976017238662671e+01  4.0000697005040927e+01  4.0030473576347582e+01  4.0068458872071986e+01  4.0020527156997495e+01  4.0051593711510428e+01  4.0058718634786636e+01  4.0000936952877851e+01  3.9992403562817898e+01  3.998838530392741