<?xml version="1.0"?>
<VTKFile type="UnstructuredGrid"  version="0.1"  >
<UnstructuredGrid>
<Piece  NumberOfPoints="5478" NumberOfCells="23651">
<Points>
<DataArray  type="Float64"  NumberOfComponents="3"  format="ascii">6.6137046354 17.5602977518 27.7215910638  6.6269831651 17.7426694041 28.64867093275  6.602092612450001 17.0481749991 28.1542612977  6.1411882397 17.3385282809 28.23191146075  5.668671844 17.11675881 28.7422318577  6.61537114215 17.2305466514 29.08134116665  6.154466769400001 17.5208999332 29.1589913297  6.12957621675 16.8264055282 28.66458169465  6.5904805895 16.5360522464 28.5869315316  6.6402616948 17.9250410564 29.5757508017  11.7239091677 22.1887846345 23.041744463  11.60369934975 21.6281565499 23.8829660882  11.93871792235 22.07442273935 23.7763278772  11.9639455333 21.6510351922 23.2755534955  11.3888905951 21.74251844505 23.148382674  11.0538720225 21.2962522556 23.255020885  11.6289269607 21.20476900275 23.3821917065  12.2039818989 21.1132857499 23.509362528  12.17875428795 21.53667329705 24.0101369097  12.153526677 21.9600608442 24.5109112914  8.5389127161 16.0629768645 26.8287490472  8.948909206350001 15.189478231 27.21926997255  9.336020367050001 15.8089520006 26.7020738293  8.631607095 15.46728219935 26.75822081565  8.724301473900001 14.8715875342 26.6876925841  9.746016857300001 14.9354533671 27.09259475465  9.041603585250002 14.59378356585 27.148741741  9.42871474595 15.21325733545 26.63154559775  10.133128018 15.5549271367 26.5753986114  9.358905696600001 14.3159795975 27.6097908979  8.511113179200001 20.17718434 29.9515406785  8.520316111450001 20.25533274355 29.32857775615  8.959190331249999 19.98422580765 29.68657931765  8.9515704486 20.6199229011 29.6045748991  9.392027718 21.0626614622 29.2576091197  8.96077338085 20.69807130465 28.98161197675  9.399647600649999 20.42696436875 29.33961353825  9.4072674833 19.7912672753 29.4216179568  8.968393263500001 20.0623742112 29.0636163953  8.529519043700001 20.3334811471 28.7056148338  2.1985519677 26.1255723761 26.5025064726  1.6336289527 25.8375340975 27.29485787105  2.0342790701 25.542809802 26.9531339899  0.77117650165 25.9998606438 26.58896924055  1.7979018503 26.4202966716 26.84423035375  -0.6561989643999999 25.8741489115 26.6754320085  0.60690360405 25.4170980697 27.03959675785  0.3705263842500001 26.2945849393 26.9306931217  1.3972517329 26.7150209671 27.1859542349  1.8700061725 24.9600472279 27.4037615072  1.1528237428 23.3761945668 29.4524456874  2.12828703805 23.4108547458 29.50151515795  2.04498589225 23.07450248215 28.7851667168  1.8114361949 23.80793185285 29.3381672159  1.46967458595 22.97911745975 29.61579362945  1.7281350491 23.4715795892 28.62181877475  1.7865254291 22.5820403527 29.7791415715  2.3034463554 23.5669646116 27.7911918621  2.3867475012 23.90331687525 28.50754030325  2.470048647 24.2396691389 29.2238887444  9.910593153300001 20.585014042 23.1524056347  10.8585608245 20.2535610138 24.10883716685  10.5665307241 20.83089851165 23.96915775505  10.63632685055 20.3741761527 23.32037212785  10.2026232537 20.00767654415 23.2920850465  11.3620605478 20.1633382634 23.488338621  11.29226442135 20.62006062235 24.1371242482  10.92835695095 19.79683865485 23.46005153965  10.4946533541 19.4303390463 23.4317644583  11.2224682949 21.0767829813 24.7859098754  1.9250130532 25.9853763325 31.8341285169  3.2438574221 25.8837932015 31.30291989695  2.4976248396 25.63391896105 32.0473762469  2.85303843495 25.54132288285 31.4457216294  2.6712456357 26.23525057295 31.08967216695  3.7810638167 25.0972694332 31.0573147419  3.42565022135 25.1898655114 31.6589693594  3.59927101745 25.7911971233 30.70126527945  3.4174782182 26.4851248134 30.345215817  3.070236626 25.2824615896 32.2606239769  7.4054952158 20.3605656003 28.1462084119  7.1533252798 21.1200932343 28.8912500883  7.5896942568 21.0023471799 28.3253462442  6.931122799600001 21.2035963597 28.38605579005  6.969126238799999 20.4783116547 28.712112256  6.4567503834 22.0466271191 28.6259031682  7.1153218406 21.8453779393 28.56519362235  6.4947538226 21.3213424141 28.95195963415  6.5327572618 20.5960577091 29.2780161001  7.7738932978 21.6441287595 28.5044840765  10.9206077216 16.8524556071 28.5353760942  10.9370040607 16.44199325265 27.2530232931  11.10885740545 17.11023968245 27.31599214895  10.5212860537 16.9256086562 27.63559363385  11.3363257286 16.36884020355 28.15280575345  11.50817907335 17.03708663335 28.2157746093  12.0957504251 17.2217176596 27.8961731244  11.92389708035 16.5534712298 27.83320426855  11.7520437356 15.8852248 27.7702354127  10.1219643858 16.9987617053 26.7358111735  8.303528483799999 21.3624279685 29.7501743335  8.15170617075 20.9888049533 28.60504945515  8.582960507899999 21.35339511085 28.8810465981  8.038710890799999 21.503278364 29.127329205  8.41652376375 20.8479545578 29.22789458365  8.847778100899999 21.21254471535 29.5038917266  9.0138469156 22.8099651671 22.0767948248  9.210114066500001 22.62429248955 23.48063924855  8.83129577705 22.19381603395 23.1113121098  9.6337399878 22.5841039671 22.3440749599  10.25363306 22.3582427671 22.611355095  9.830007138700001 22.39843128955 23.74791938365  9.45118884925 21.96795483395 23.3785922449  8.6487446385 21.5776669008 24.1458293948  9.027562927950001 22.0081433564 24.51515653355  9.4063812174 22.438619812 24.8844836723  12.3508032866 19.4946544591 26.1142376677  12.43246615845 19.02349058255 25.3224246507  12.6854495656 18.46944757235 25.68305080565  12.8937410529 19.5272166494 25.84480955975  13.4366788192 19.5597788397 25.5753814518  12.97540392475 19.05605277285 25.05299654275  13.2283873319 18.50200976265 25.4136226977  13.0200958446 17.4442406856 25.2518639436  12.76711243745 17.9982836958 24.89123778865  12.5141290303 18.552326706 24.5306116337  10.9334680258 23.9177975614 28.40284507  10.2600783646 23.11243852685 27.74615121905  10.35001351085 23.75961851035 27.7867852996  10.99026512855 23.6648112615 27.95166763025  10.84353287955 23.2706175779 28.36221098945  11.0470622313 23.4118249616 27.5004901905  10.4068106136 23.50663221045 27.33560785985  10.9003299823 23.017631278 27.9110335497  10.7535977333 22.6234375944 28.3215769089  9.766558995900001 23.6014394593 27.1707255292  5.0885655303 22.5041915693 26.6238362087  5.4100148831 21.84145138085 27.05910246955  5.685466914199999 22.31334693175 27.306280985  5.0154932817 22.3972301957 27.2449962487  5.7585391628 22.42030830535 26.685120945  5.4830871317 21.94841275445 26.43794242955  6.4285127953 22.3364250414 26.7464056813  6.153060764199999 21.8645294905 26.49922716585  5.8776087331 21.3926339396 26.2520486504  4.9424210331 22.2902688221 27.8661562887  9.5820042224 16.3382649554 30.7258139007  9.0852166081 15.424177231 30.0845050027  9.054756447900001 16.09356126165 30.17155992885  9.177192309200001 15.9885245026 30.8971338322  9.612464382599999 15.66888092475 30.63875897455  8.772380396000001 15.6387840498 31.0684537637  8.649944534700001 15.74382080885 30.34287986035  9.207652469399999 15.31914047195 30.81007890605  9.642924542799999 14.9994968941 30.5517040484  8.5275086734 15.8488575679 29.617305957  6.0294647907 22.3880576998 30.8475656323  5.3572874142 22.2314829262 30.6763075594  5.59060068355 21.5150414456 30.4218938382  5.36116256575 22.2104181043 29.9655272353  4.6928603408 22.0327785088 29.0834888383  4.68898518925 22.0538433307 29.7942691624  4.9222984586 21.3374018501 29.5398554412  5.1517365764 20.6420251914 29.9962220441  4.91842330705 21.358466672 30.2506357653  4.6851100377 22.0749081526 30.5050494865  3.5607297068 26.9101132178 28.0042272002  2.85042123545 25.7395630657 27.89665319875  2.6606129795 26.169257808 27.91704042745  2.99877107845 26.3442384863 28.3271804192  3.4123798638 26.3054377972 27.57369997975  3.22257160785 26.7351325395 27.59408720845  2.8844135089 26.5601518612 27.1839472167  3.07422176485 26.1304571189 27.163559988  3.2640300208 25.7007623766 27.1431727593  2.4368124501 25.7783637548 28.6501336382  6.2172103037 18.9468391376 27.0955983809  6.45479369825 18.62078613345 27.94420566975  5.78967601575 18.92274574525 28.0957513501  6.2565465324 19.31405682635 27.6312093283  5.750339787050001 18.5555280565 27.5601404027  6.415457469550001 18.2535684447 27.40859472235  5.2834692704 18.1642169754 28.0246824245  5.9485869529 17.8622573636 27.87313674415  6.2958827611 19.6812745151 28.1668202757  3.7996150452 19.6730232923 27.5474392233  4.65663289425 20.1903893164 27.40658805545  4.2662016428 20.4614241127 26.94347249085  4.0636008104 20.33880034595 27.54882000045  4.59524796145 19.6472360295 26.7998597687  4.39264712905 19.52461226275 27.4052072783  4.0022158776 19.79564705905 26.9420917137  4.20481671 19.9182708258 26.3367442041  4.9856792129 19.3762012332 27.2629753333  4.3275865756 21.0045773996 27.5502007776  11.3669559852 24.2872323705 22.6962671972  12.3026533985 23.49464963225 23.077516488  12.1854026888 24.12617466675 23.3187922285  11.68942138485 23.84330983535 23.34542270225  11.98018799885 23.9385721674 22.42836098295  11.86293728915 24.5700972019 22.66963672345  12.3589185931 24.8529620333 22.6430062497  12.4761693028 24.2214369988 22.4017305092  12.5934200125 23.5899119643 22.1604547687  12.0118867845 23.3993873002 23.9945782073  11.7132250969 21.0950343656 24.1476362017  11.1381701587 21.18651761845 24.0204653802  11.68799748595 21.51842191275 24.6484105834  4.075120586200001 22.05195937435 30.1402843081  4.13933565745 22.72368972535 29.5433184107  4.078995737750001 22.03089455245 29.429503984  3.5858109741 23.4146009419 30.0031479831  4.1354605059 22.74475454725 30.2540987348  3.5254710544 22.721805769 29.8893335564  3.4651311347 22.0290105961 29.7755191297  10.266644295 24.9413999882 24.5587913358  10.8925141681 24.01044575445 24.03458986195  11.13926553975 24.1703936442 24.27668477155  10.41111968635 23.9775603051 24.49281999795  10.74803877675 24.97428543755 24.1005611998  11.2294332585 25.0071708869 23.6423310638  11.6206600215 24.20327909355 23.81845463555  10.5555950777 23.013720622 24.4268486601  
[...]
<PointData  Vectors="u"> 
<DataArray  type="Float64"  Name="u"  NumberOfComponents="3" format="ascii">8.1090182234022535e+01 -5.5901161196875506e+01 -1.8878953805215946e+01  7.1317454559010713e+01 -5.5788949484226507e+01 -9.3835763768790788e+00  7.7298624279229998e+01 -5.5443131406859337e+01 -1.3859929952519883e+01  7.7754662837960794e+01 -5.4649214857077887e+01 -2.4436176578319349e+00  6.4248568672766169e+01 -5.6852664410747536e+01 2.7639595669600436e+00  6.5829942650539806e+01 -5.4562309671475184e+01 -7.0448639057361904e+00  6.4822502165068187e+01 -5.8015844555112785e+01 -3.7778793810395270e+00  7.0719174435844010e+01 -5.2510845090104183e+01 -3.1743975085256890e+00  6.8504906540451557e+01 -5.9485112493716279e+01 -9.9139945479954825e+00  6.3991606987245973e+01 -5.6981293673294743e+01 -6.7448470780273988e+00  2.9042146926019768e+02 5.3313799067334841e+01 -1.0993986254343969e+01  2.2166163383602634e+02 1.6957230838209266e+01 -1.7215954510845165e+01  2.4225019450951035e+02 2.7082664718079808e+01 -4.5833559697333001e+01  2.8793082186516892e+02 4.8614317100383452e+01 -8.5740116177946852e+00  2.4506907378634401e+02 3.6927257769336038e+01 3.4619093598504627e+01  2.1573813526695639e+02 6.6120320951646088e+00 4.0375093994899231e+01  2.3142392265693670e+02 2.8589671108805089e+01 4.2919150379407220e+01  2.7129628840516210e+02 1.9744219669544179e+01 -3.9058339666852717e+01  2.3565704966076387e+02 1.7670782378395366e+01 -5.4939057144578186e+01  2.1895889129740095e+02 1.2384114844314109e+01 -7.8431094999566454e+01  3.8489824564541564e+01 -4.1291742521339238e+01 -3.6377349936553010e+01  2.8514061721572400e+01 -2.2257483063845594e+01 -2.0940782963996384e+01  4.3495163849824358e+01 -1.6187726552295434e+01 -1.9547416723305531e+01  1.8216728408967636e+01 -2.5058687116932113e+01 -3.1316231483679282e+01  6.7154534901212966e+00 -1.0428362122269682e+01 -8.4384439807458786e+00  4.7890841104594948e+01 -9.2407214980870389e+00 -8.0663360116336857e+00  2.2541257316339593e+01 -1.5237119319569745e+01 -5.4337837416714319e+00  3.8596545846254095e+01 -3.3777702549101116e+00 -2.7548485139732932e+00  6.7690739359784970e+01 -3.0773254208435069e-01 -8.1570211968892004e+00  3.1297577218706728e+01 -2.0722066485393746e+01 -9.2035120985549685e+00  6.6248249461196750e+01 -4.1444478062808642e+01 -2.6744264522929985e+01  7.0200429402534851e+01 -3.5577819433980942e+01 -2.7998345403019023e+01  5.9875907255482893e+01 -4.0472629829224317e+01 -3.1367778504027264e+01  6.5410935110165781e+01 -2.6927047457293870e+01 -3.3666281037905271e+01  6.7606549029985629e+01 -1.4634850932570190e+01 -3.0363546111754530e+01  7.0879464642569218e+01 -2.5576619269387734e+01 -3.0132718434459331e+01  6.5672418760597509e+01 -2.8737420779651604e+01 -3.6261846655605474e+01  6.1501846939770410e+01 -3.6007933389339840e+01 -3.1799337555933647e+01  6.7030411587763254e+01 -3.5051698740042397e+01 -2.9675377138311955e+01  7.5253572099468087e+01 -3.2997529957671837e+01 -2.5936532057190572e+01  5.5437233853029014e+01 -4.7550585406682281e+01 2.1575085049657588e+01  7.3312858305596492e+01 -3.6021453946847934e+01 3.1389054868399004e+01  6.8388716292820348e+01 -3.3179284503400538e+01 2.9033705996008596e+01  7.2342430286296718e+01 -3.4381231407005878e+01 -5.3594738586469353e+00  6.1955827062951620e+01 -4.4233441332421251e+01 2.6535921489798309e+01  1.6069603086906378e+02 -2.1929191015364385e+01 -5.8035632120292298e+01  9.1220973836007190e+01 -3.1321732969970128e+01 6.3957204901144022e+00  9.2072523688868515e+01 -2.8931917932138226e+01 -1.0725240009737439e+01  7.3553544194118331e+01 -4.3361531427079640e+01 2.3757439719486321e+01  7.2855141578505808e+01 -2.7627240748607292e+01 3.9741401717852121e+01  1.0966701236296903e+02 -2.5754110375730843e+01 9.1465459118463613e+01  6.1061765244956796e+01 -3.2369032552578588e+01 7.2833396233389536e+01  7.3818003721743153e+01 -3.3316141642623968e+01 6.6872132780083419e+01  7.2903977456797620e+01 -3.2209688399820429e+01 8.0687254482875417e+01  7.1694108475518476e+01 -3.6606487263000822e+01 1.0278609217015000e+02  8.0711002883816747e+01 -2.9159576954153071e+01 6.4048078239567545e+01  6.1072223604930585e+01 -3.9466381316708556e+01 8.5155602115666838e+01  7.4071669974468747e+01 -2.4014912659007862e+01 5.9673150976401779e+01  7.0807213165659192e+01 -2.9531016081059526e+01 5.9902590766206039e+01  6.3021484994737882e+01 -3.0674951432891191e+01 6.5914944020841062e+01  2.0149236549175569e+02 -5.9631127279153702e+01 5.4399735957118381e+01  1.7062830233404819e+02 -2.9158221005321671e+01 3.7946377364926680e+00  1.8104366802091977e+02 -2.2936170406801068e+01 1.6938973940222599e+01  1.7283492840994137e+02 -3.9786941540647220e+01 4.3067046992132205e+01  1.5749019868303759e+02 -7.1034010799729117e+01 2.1043294679856821e+01  2.0153104265448565e+02 -2.9445022705086846e+01 1.6115573531437015e+01  1.8819320551835713e+02 -1.6528187033097112e+01 -7.7608008873721088e+00  1.7695258289046168e+02 -4.7747068310933869e+01 2.3220376105247521e+01  1.4797963103763968e+02 -5.9541369755831724e+01 9.9434572580495892e+00  1.6890363652169162e+02 -1.2485468074915351e+01 -3.8061575273985426e+01  -4.9312879479715394e-01 -1.6259460601607213e+01 8.1139415190420777e+01  2.4970300645624633e+01 -1.7415804833181202e+01 6.3022304416655018e+01  6.1652694489391644e+00 -1.0212947156842921e+01 6.3315275999412897e+01  1.9709921540105423e+01 -1.8003762045009843e+01 6.4942027485556380e+01  2.4865672687251820e+01 -2.2340653519885961e+01 7.7870135124245209e+01  2.5816625580791644e+01 -2.0144056746592344e+01 4.8179456119145662e+01  1.7726173536139022e+01 -1.4544154562131990e+01 5.0910109196066628e+01  3.2894074347272927e+01 -2.2029303662389580e+01 5.7562501847054435e+01  4.2453112071563375e+01 -2.5587880200734844e+01 6.7008242788374389e+01  1.0294423545931981e+01 -8.4822432389645979e+00 5.1174475368744432e+01  9.0487924567394813e+01 -4.0191879783429847e+01 -1.7104796585088025e+01  9.3076329101896818e+01 -3.4400516699765525e+01 -1.9940144413919391e+01  9.2755228675419716e+01 -2.9321742314743634e+01 -2.1092474633783581e+01  1.0180657763129113e+02 -3.4136349136736186e+01 -1.5353887771089427e+01  8.9538458708595641e+01 -4.3547978343842324e+01 -1.4547316983424082e+01  1.1240680412963202e+02 -3.4019036106197326e+01 -1.4874394073718117e+01  1.0691854049731866e+02 -2.4869432682994713e+01 -2.1313545916407168e+01  9.6248932625607281e+01 -4.0350728045861807e+01 -1.2859466271495945e+01  8.5426255201812126e+01 -4.7706064545603084e+01 -1.3281595775797353e+01  9.6497044738325400e+01 -1.6590618947649354e+01 -2.5079782970394472e+01  9.6386329258605684e+01 -2.4957727051261113e+01 -8.1292597956622402e+01  1.0981725423593699e+02 -1.0874100378373377e+01 -3.3238395164287695e+01  1.2131760372731574e+02 -2.0393385646013915e+01 -4.2253893071723439e+01  9.3306238333704002e+01 -2.5666590913470952e+01 -4.5600913282046378e+01  1.1870898164749104e+02 -8.5141410627372309e+00 -8.7923463962261962e+01  1.4134977972893248e+02 -9.0822327320234422e+00 -7.5064851804754497e+01  2.2056602296557173e+02 -2.0852768929532353e+01 -3.1320222831903852e+01  2.0401722659668832e+02 -1.4760012792025009e+01 -3.6750602788797949e+01  1.7051405212831895e+02 -5.8139894781162917e+00 -3.5999476604493324e+01  8.4581150636256652e+01 -2.3591184948428634e+01 -2.8639438678977989e+01  8.0453862284502037e+01 -2.3269263043005253e+01 -3.4335053089721612e+01  8.4256536259910263e+01 -2.5122597876620684e+01 -2.4707698040810826e+01  8.0060706852454430e+01 -1.7281723031103379e+01 -3.0138368850047666e+01  8.8165077644300879e+01 -1.9499631286299536e+01 -2.9505404143837762e+01  7.7483890313178151e+01 -2.7201898386454516e+01 -2.8827921873356200e+01  7.5343944330888917e+01 -1.9779161141068620e+01 -3.5440385054510578e+01  3.0666840217991444e+02 2.1393547924000860e+01 1.0842981595439872e+02  2.2421732231898332e+02 2.1574060894963278e+01 8.0970217164397710e+01  2.5210985872123024e+02 1.0619719806764158e+01 1.0612738501645958e+02  2.5766623085374675e+02 1.3982505188033644e+01 7.8682731367803754e+01  2.5200285182002597e+02 2.9027871673348635e+01 5.4503809629070460e+01  2.0454970888722104e+02 1.6482507836460186e+01 4.5527735705779115e+01  2.2455279788878047e+02 1.9897108144706102e+00 7.0645626464079740e+01  1.9662221485193857e+02 -9.9093896444211325e+00 1.0640168857756305e+02  1.6578575963406914e+02 4.9618327104280135e+00 6.8618071281977421e+01  1.4521429057010516e+02 1.7124080275583005e+01 3.5494334814359135e+01  1.9303474188437252e+02 -6.8911030132211181e+01 -5.8450314626144362e+01  1.6981926117489488e+02 -1.5177417966271939e+01 -3.0587257680515968e+01  1.6674416544724491e+02 -2.9746897240230799e+00 -1.0160130418565389e+01  2.1262799611681984e+02 -4.5489652431450345e+01 -3.5719173559974422e+01  2.3533584429430223e+02 5.9096907623723798e+00 -1.8314285342071788e+01  1.7913609881754985e+02 6.7491863313849283e+00 -2.1712449337404710e+01  1.6922173174208726e+02 2.0256828629394104e+01 -2.5778320828515877e-01  1.3461595526559731e+02 2.3724757157544296e+01 4.4895371343259498e+00  1.4115270737175950e+02 1.8545251972423419e+01 -8.4444844153352285e+00  1.5085059864065241e+02 8.3452404143285026e+00 -1.9895171219011207e+01  1.2482377677734188e+01 5.6888102033646186e+00 -2.3926332420200460e+01  4.2393735042313402e+01 5.3751599613117280e+00 -3.8712992860573216e+01  3.1167938772480067e+01 7.2629908517857702e+00 -3.5942894661039183e+01  7.5992507854987457e+00 5.1575935166332663e+00 -4.1446876102641092e+01  1.2816783087034201e+01 6.2365434187250237e+00 -2.4031191614697438e+01  2.3849727569803964e+01 -4.4552517696250886e+00 -6.3948232373643904e+01  4.4776712737455732e+01 4.5051005542198386e+00 -4.6063047101618579e+01  2.1544201897638896e+01 -4.6090208863639539e+00 -5.1986423685516144e+01  2.3807775468093975e+01 -6.6722536475547667e-01 -3.7220167824540724e+01  5.2419390614560527e+01 1.4687954619326433e+01 -3.6249676657403434e+01  1.8316599053820525e+02 -5.0741944719064747e+01 7.4435962433058450e+01  1.6581679110699085e+02 -3.7618103244437805e+01 3.6364646061046628e+01  1.5982924262049991e+02 -3.8617101500234241e+01 1.2206183254669758e+01  1.4696233473848804e+02 -4.3042708182957703e+01 4.8400962419075043e+01  1.9041263177301636e+02 -3.0790108378652906e+01 2.6572771856839910e+00  2.1681405350908730e+02 -3.7109311719442957e+01 3.2412562838113459e+01  1.7200810736267431e+02 -1.1786602288400054e+01 -4.7309485720988263e+01  1.9481848969129712e+02 -2.3823946416339272e+01 -5.5885541663983837e+01  2.2652099096586696e+02 -3.1188561979038827e+01 -3.5913971515923677e+01  1.2005457846299477e+02 -4.3485128657072821e+01 3.8789254160412113e+01  1.6602493162841029e+01 -3.3270316982305722e+01 -1.6356663630959194e+01  2.2677556498271542e+01 -4.1181346749813500e+01 -2.2371666301860099e+01  2.7312373397543965e+01 -3.9199444405243092e+01 -2.1038268602534480e+01  2.2588193214717819e+01 -3.7918264432962459e+01 -1.4489517588412570e+01  1.3567966066161423e+01 -3.8496333792939090e+01 -1.5747259187878239e+01  2.2407353292958909e+01 -3.9734385520380052e+01 -1.1741083883787002e+01  2.8696876140725902e+01 -4.2622955005239270e+01 -1.7285905554859145e+01  2.0419488879301610e+01 -3.8582073803555673e+01 -1.7684450745022595e+01  8.2612926682584575e+00 -3.8815495938843561e+01 -1.9977332262579640e+01  3.5279463952381860e+01 -4.4770170913591762e+01 -2.3387141600518468e+01  5.4783499936755469e+01 -5.5823645814089012e+01 -3.3344296363568304e+01  4.6371044567105571e+01 -4.6049631706989580e+01 -1.0370651574319044e+01  6.2040305277017936e+01 -4.6769459135157540e+01 -1.4756742383135688e+01  6.7574647496669442e+01 -4.6602793079158431e+01 -3.1612885572411811e+00  8.1175179830194438e+01 -4.5331852596030075e+01 2.5036278900418509e+01  6.3771126110825620e+01 -4.5057967620958216e+01 1.4720993968325697e+01  7.3565151458081615e+01 -4.9075561249779959e+01 1.1831122673414034e+01  6.5962831264042777e+01 -5.3249461845542839e+01 -3.0139415867960997e+00  5.8406862131768385e+01 -4.6919175670151787e+01 1.3959673480387162e+00  4.7903793200834748e+01 -4.1884215378690719e+01 6.9816884336111542e+00  5.9627281662611665e+01 -5.4040093523458836e+01 5.4747988352668017e+01  6.7678248108419155e+01 -3.8006243529111771e+01 4.6691677574596355e+01  6.6595195784516022e+01 -4.1855649365372656e+01 4.8433649725676347e+01  6.4010268920216234e+01 -4.1730260437981002e+01 5.4445097169280977e+01  7.2522676951436935e+01 -4.6733426833710212e+01 4.1834249233385734e+01  6.4270239349356444e+01 -5.9619601770497987e+01 5.5000040617534687e+01  5.9907508450302906e+01 -5.6061753219653546e+01 4.6128386045734047e+01  6.7331693641005856e+01 -4.7131252187731214e+01 3.8087024322161334e+01  6.9964907298031690e+01 -3.8950149121434542e+01 3.8609896770118226e+01  6.5100525938559187e+01 -3.6720524194266339e+01 5.9357205984773131e+01  1.1144694338448168e+02 -6.8707362645221238e+01 -2.5170200267257862e+01  8.8305388372411670e+01 -6.0478410275774252e+01 -1.1689531162007972e+01  8.7722335196650860e+01 -6.7013898918545252e+01 2.9688731678761995e+00  1.0318842781140414e+02 -6.2679175145279331e+01 -7.7863530553536666e+00  9.8221228396972805e+01 -6.8303139734343787e+01 3.9849578933497920e+00  9.2916799811884275e+01 -6.0977088475450280e+01 -2.6355994667487369e+01  7.3124531608833536e+01 -7.0804766183730607e+01 6.7751213759436419e+00  8.3859934577584696e+01 -5.6052395752954986e+01 -2.1455827130570810e+00  9.6779011945267825e+01 -5.8226750012738940e+01 -4.5945597999720054e+00  1.2331055304710920e+02 -8.8171139005909524e+01 1.6354318476973037e+02  1.4521246311854034e+02 -6.5156050681181355e+01 9.2574806810722123e+01  1.6315900808535005e+02 -2.8816586812884552e+01 1.3382555882989044e+02  1.2392958045745225e+02 -5.1403796291949625e+01 1.1353277209368419e+02  1.8674138997259618e+02 -9.7918381508330043e+01 1.5505374832148115e+02  1.3708643759467626e+02 -1.0592851539915516e+02 1.1355212207830890e+02  2.1903657506080282e+02 -2.2594193108869931e+01 2.0447362007908399e+02  2.0515077823930352e+02 2.6811529919835017e+01 2.3241689641230977e+02  1.5086152789123122e+02 -1.0601009132749536e+02 6.0929875118463364e+01  1.2489033473494359e+02 -4.1393107946329764e+01 8.5365139218894384e+01  3.1138906065374118e+02 5.8910637398496327e+01 -5.1148156137284609e+01  2.7597159243047901e+02 4.2770095234514002e+01 -1.0068504924305074e+02  2.7609722226693106e+02 3.5241388082141945e+01 -1.0639817284603579e+02  2.5718683592377209e+02 3.3152617194045725e+01 -7.3824727991511580e+01  3.1876842828800653e+02 3.1748179199280237e+01 -7.7141379379909964e+01  2.9421410285130167e+02 8.3268758684241334e+01 -6.6498433111804687e+01  3.0454566912621681e+02 1.0524158491772377e+02 -1.9096609788839817e+02  3.3596619760612577e+02 9.9072398434790543e+01 -1.7673443754420671e+02  2.9439938213524437e+02 6.7089829748850903e+01 -1.6738887658848188e+02  2.3742733308783815e+02 1.3752882548416725e+01 -8.8487510270729175e+01  2.0867241114469124e+02 3.4134173262854186e+00 -2.5710771974014150e+01  1.9636502656094939e+02 -3.4585985787419720e+00 -2.0286132632101692e+00  1.8955782066089853e+02 8.4030433269530369e-01 -5.8766068236972579e+01  5.1025732954888056e+01 -4.1765028039194284e+01 2.4236571669807468e+01  6.2382028786005257e+01 -4.0985651673649429e+01 3.2238372549489114e+01  6.6224581222133793e+01 -4.4415814912083420e+01 3.3740171397775605e+01  4.7337688095258308e+01 -3.5017660137370321e+01 4.1995838261346947e+01  4.6092215588492650e+01 -3.8029551424294226e+01 2.5837862253287962e+01  5.1282290438443383e+01 -3.8041333911594997e+01 4.1631264762822966e+01  5.4661374640307983e+01 -4.2808988457920343e+01 4.1375891060990320e+01  1.0214631575074411e+02 3.5737887784023378e+01 -3.5523458901155053e+01  1.9108226825104990e+02 2.2785860160341532e+01 -4.1092273718690535e+01  1.8001554873340027e+02 1.0356822105216025e+01 -6.9684760936657156e+01  1.4897682841961370e+02 2.8122419625626467e+01 -2.3420560732118698e+01  1.4830078135526065e+02 3.5097975228231888e+01 -6.0724574073267917e+01  2.0175346564645093e+02 1.7981854822071131e+01 -8.6918114310745054e+01  2.2530305311229813e+02 1.4343233612292806e+01 -9.1883064394421879e+01  1.7729842519241143e+02 2.0530005040407094e+01 -1.4139965335402485e+01  2.0310973373433299e+02 1.6843775922265230e+01 -5.0987966456080891e+01  2.5585006836348296e+02 2.6172588591524146e+01 -7.1865571789473535e+01  3.0041434801297544e+02 5.3766714584969229e+01 -5.3965405697442783e+01  2.8742292801121681e+02 1.6433239938081094e+01 -7.9569522679963896e+01  2.5568431739596713e+02 2.8248573662893733e+01 -1.1767682873252299e+02  2.2546122648136145e+02 -2.2335862431762504e+01 -1.0256786707403849e+02  2.0582995360309866e+02 4.5767730289374837e+00 -1.0007300028439059e+02  1.7815412021333086e+02 -1.1023080264520255e+01 -8.0488143704878269e+01  2.2046635265842417e+02 9.0230887776346762e+00 -7.0730337374592267e+01  1.4175726793813169e+02 2.8164377555784076e-01 -1.4022871981583810e+02  2.1492823061974880e+02 2.5257721629197661e+01 -1.7003226287270959e+02  1.8487929988079256e+02 6.2637196455153097e+00 -1.0492150083553786e+02  1.5699015593442877e+02 4.3053249256408845e+00 -1.5140955928104890e+02  1.9782856116270327e+02 1.4857483291380566e+01 -1.4773499324482259e+02  3.4224024647118102e+02 3.5692556346705231e+01 -1.1128790286538629e+02  2.3339489205050450e+02 2.1970680387904629e+01 -1.2352253992659058e+02  1.8235391857696989e+01 -2.5771640658033057e+01 -2.5275228890942977e+01  1.4938829267147321e+01 -2.5321343630814333e+01 -2.5160007899047741e+01  1.9368873263496045e+01 -1.9766137010622732e+01 -2.1027994803686767e+01  1.3995725442650723e+01 -2.8920906371083138e+01 -2.3314178588894418e+01  1.8337621799224340e+01 -3.1565789425794055e+01 -2.2873254283043753e+01  1.2864391145934064e+01 -3.1144418324967059e+01 -2.7091134616701151e+01  1.2635273951790975e+01 -2.9900482627257340e+01 -2.8866447688563007e+01  9.7910566204645821e+00 -2.2833742004765718e+01 -2.1876806501000374e+01  9.8433785390721624e+00 -2.5616572990784185e+01 -2.5143698298751378e+01  9.4485069196765945e+00 -2.3937017755134800e+01 -2.6808912849888806e+01  1.6124333179821528e+02 -7.3810948044507768e+01 1.8485617393689104e+01  7.0835237514858960e+01 -1.7887472349118816e+01 4.0207215538868901e+01  8.4439035359390999e+01 -2.8149352874673994e+01 4.2388091692721993e+01  7.0917488872205112e+01 -5.5679758359569291e+01 3.5997901952836862e+01  1.4802277985187715e+02 -9.4191576250938212e+01 -1.0768725204512160e+01  6.8074381257041324e+01 -3.2826464246571234e+01 -3.1294540610841537e+01  4.7143117710493222e+01 -1.0741351323924965e+01 4.7878818975208581e+01  5.6552956627672749e+01 -1.0635381054204892e+01 7.9625912992715428e+01  7.0824486536223091e+01 -1.9383428473129001e+01 6.3107737575054692e+01  6.4927480674524531e+01 -8.8095325152180862e+01 6.2714292309087952e+01  9.1519901740488919e+01 -6.6355990193352937e+01 8.5511832465897541e+01  9.2964003512498877e+01 -6.5321107720145434e+01 4.4995300850733216e+01  7.3156979119787849e+01 -1.0632729058460288e+02 9.5440378363774002e+01  1.1756828921725223e+02 -6.4338851501211593e+01 6.2937450985727068e+01  1.1095769809260219e+02 -5.0318486839721565e+01 1.8185892303433132e+01  1.2016588762196209e+02 -4.9159230715710976e+01 4.9301568370167956e+01  1.5443392518986656e+02 1.3073266589430514e+01 8.7110621841629964e+01  9.4138348373068681e+01 -2.5283692880709765e+01 5.3219871802558046e+01  1.7360340142575865e+02 -3.5510333262321666e+01 6.5240906072718403e+01  1.1474311306854706e+02 -7.9077354893924552e+00 5.4437289920791549e+01  8.9247719276513394e+01 -2.9118897005942426e+01 4.5925375911553452e+01  1.1430390390996571e+02 -1.5748463795234228e+01 3.7199774231899049e+01  1.5082425002584750e+02 -6.4811473065153592e+01 3.2962046140131470e+01  4.7193811808529780e+01 -1.0946996235698782e+02 1.3284100805418204e+00  1.5835396395772092e+01 -3.1691805258162372e+01 3.3523142339783765e+00  1.3467957263075061e+01 -4.4561978179964598e+01 4.5059750528155096e+00  3.2892656294650564e+01 -6.1368344061964272e+01 -3.5825337042440184e+00  3.4821096803757470e+01 -5.9854605523758302e+01 3.7182206434033823e+01  2.9573355612690936e+01 -4.1044937702759654e+01 1.8005732205633354e+01  3.1259163415254175e+01 -4.4101181124708198e+01 -1.7804859940816118e