<?xml version="1.0"?>
<VTKFile type="UnstructuredGrid"  version="0.1"  >
<UnstructuredGrid>
<Piece  NumberOfPoints="5425" NumberOfCells="25208">
<Points>
<DataArray  type="Float64"  NumberOfComponents="3"  format="ascii">35.02493232 12.2129896914 13.8512643089  33.9874795265 12.46658218175 13.4680406917  34.2733649271 12.91604169555 14.01983098805  34.3661349014 12.07153829955 13.8806728747  34.6462769451 12.6080335736 13.4386321259  33.9932228834 12.3795464215 14.46187173685  34.652020302 12.52099781335 14.43246317105  34.279108284 12.8290059353 15.0136620332  34.2676215702 13.0030774558 13.0259999429  33.7073374828 11.9300869077 13.9100814405  38.130194365 10.1740580474 11.4252395599  37.50320282515 10.4759278477 11.70151861625  37.53158482265 11.5129792033 11.514188918  37.1527019558 10.98242803935 11.26017039635  36.8762112853 10.777797648 11.9777976726  34.5745318324 11.5813232201 11.8240127005  35.6484729252 11.5341198585 11.74274517805  35.1393400585 11.5247215475 12.2971984303  35.3702515498 11.9867676891 11.6849650332  35.0836646991 11.5907215311 11.26955944825  35.5927975658 11.6001198421 10.715106196  35.8793844165 11.9961660001 11.13051178095  36.1659712672 12.3922121581 11.5459173659  35.9350597759 11.9301660165 12.158150763  35.7041482846 11.4681198749 12.7703841601  32.742487865 13.212142647 12.6004664908  33.2249126739 12.57111477735 13.25527396565  32.78072019955 12.9888306364 13.543534101  33.17929273085 13.4754650545 13.29100586665  33.6160975967 13.738787462 13.9815452425  33.66171753975 12.83443718485 13.9458133415  33.2175250654 13.2521530439 14.23407347685  32.8189525341 12.7655186258 14.4866017112  33.26314500845 12.34780276675 14.19834157585  35.0364765163 10.6355888111 11.0780516016  35.8327633806 10.40432378555 10.61406275175  35.04809661985 10.24011425175 10.4723692689  35.27389076795 10.775132109 10.5380601034  34.8066716937 8.7801721838 9.2868423689  35.5374200162 8.994506531799999 8.991319550250001  35.56835585579999 8.321435597800001 9.664382810900001  35.69487837065 8.853669352099999 9.954305094550001  36.3300400179 7.8626990118 10.0419232529  36.2991041783 8.5357699458 9.36885999225  36.2681683387 9.2088408798 8.6957967316  37.37962230495 10.1735584037 10.7876567309  35.3733067431 14.1308655265 14.9105353725  34.82046415665 13.56697149115 13.9682676577  34.82620751355 13.4799357309 14.96209870285  34.4947021699 13.93482649425 14.4460403075  33.94185958345 13.3709324589 13.5037725927  33.94760294035 13.28389669865 14.49760363785  36.4795451314 9.0178788859 10.0959985774  36.4486092918 9.6909498199 9.422935316749999  36.6290502449 10.17305876 10.1500739019  35.933371776 12.3243220681 12.97526366915  36.4993468135 11.8379443214 12.4490488215  33.9029515356 14.2064540993 15.5116988101  33.36095203485 13.48598636255 14.99915026065  34.0910299098 13.5177300173 15.26268042165  33.75952456615001 13.97262078065 14.7466220263  33.54903040905 12.79726228055 14.7501318722  35.37031240045 11.051854343 11.92421788085  34.80550417435 11.1084560156 11.45103215105  35.31463704105 11.1178543266 10.8965788988  37.492283232 12.1946566402 15.1787864203  36.681193306 11.1795292202 14.41492517775  37.3811017182 11.2562630589 14.6380175487  37.17778197539999 11.8660485303 14.43177068155  36.7923748198 12.1179228015 14.95569404935  36.8632807188 11.5374404204 13.6847549428  37.0666004616 10.927654949 13.89100180995  36.4778735632 11.7893146916 14.2086783106  36.0924664076 12.0411889628 14.7326016784  37.2699202044 10.3178694776 14.0972486771  33.5050547176 13.1076100514 12.81323321685  34.9858849274 12.23559866535 12.8981920515  35.2167964187 12.69764480695 12.2859586544  34.4210767013 12.29220033795 12.4250063217  32.4149164447 11.3794379376 13.4675368213  33.06112696375 11.65476242265 13.6888091309  32.97608462399999 11.1433498854 13.21400842615  32.81560571715 11.72059832835 13.0640913148  33.2162949896 12.0617587191 12.6606458083  33.62229514305 11.41867437045 13.43528073575  33.4618162362 11.9959228134 13.2853636244  33.37677389645 11.48451027615 12.81056291965  33.5372528033 10.9072618332 12.960480031  36.94976729995 9.43559291085 9.818322777500001  37.39279525735 9.960921744450001 9.916698896050001  37.16987898575 9.653881301149999 9.218727216400001  38.1565402698 9.7487847289 9.683323890200001  37.7135123124 9.223455895299999 9.58494777165  37.270484355 8.698127061699999 9.4865716531  37.1700016108 7.4478498571 8.5508174926  36.4683338399 8.196656008649999 9.028886468150001  37.2202429829 8.072988459399999 9.01869457285  36.75002081434999 7.65527443445 9.296370372750001  36.4180924678 7.57151740635 8.5610093879  36.80026218645 8.28041303675 9.764247452999999  35.99811167135 7.7789419837 9.306562268050001  35.6661833248 7.6951849556 8.571201283200001  40.6758673128 10.6470189136 12.609853117  39.35168926155 11.0023285548 12.77856343395  39.4030308389 10.4105384805 12.01754633845  39.22348864285 10.32001749085 12.74812973885  37.7711099729 9.993016068099999 12.8864063607  38.07885278765 10.7658481217 12.1862566554  37.8993105916 10.67532713205 12.9168400558  37.95065216895 10.08353705775 12.1558229603  38.0275112103 11.357638196 12.9472737509  36.7173509493 13.2856946803 14.8139952066  36.40490867845 12.66344182155 14.7732984425  36.79031583405 12.41156755035 14.2493750747  37.10481709065 12.74017566025 14.99639081345  40.6758673128 8.779853423800001 11.1554483323  39.4030308389 9.662392230249999 10.8047870386  38.9492549852 9.146129456400001 10.4858171691  39.4030308389 9.476955735600001 11.2903439461  40.6758673128 8.965289918450001 10.6698914248  38.9492549852 8.96069296175 10.9713740766  40.6758673128 9.150726413099999 10.1843345173  37.2226426576 9.1415324997 10.7872998209  37.6764185113 9.657795273550001 11.1062696904  35.0597167234 9.844639692399999 9.866686936200001  36.1767283965 8.730556976399999 10.8337259321  35.54156674925 9.7215273167 10.74610777375  36.1411796905 9.49308609605 10.32699337855  36.62302971635 9.36997372035 11.2064142161  36.77634133775 8.502115755750001 10.4146115369  36.0234167751 9.598414941 11.6255286113  37.04942697145 9.959665073850001 11.38254874675  36.92584645125 9.657295629850001 10.4686868614  36.7526307651 10.475428204 11.06393578725  35.96717583175 8.452012917699999 8.633499007400001  36.76932634685 8.95348397075 9.091184192349999  38.3700127315 7.6795911766 9.2647459764  38.226093682 8.666045039 9.35306967575  38.6549082696 8.645779789900001 8.816036051699999  38.77585787025 8.15677709645 9.2421568374  38.24906313085 8.16859387005 8.8386251907  37.82024854325 8.188859119149999 9.37565881475  38.1281135302 8.6575965635 8.412504405  37.6992989426 8.6778618126 8.94953802905  39.181703009 8.633963016299999 9.219567698400001  34.1409346576 11.7557050639 12.8670470705  33.7419582799 12.53241808745 12.8433228756  33.895413411 11.8215409696 12.2423292544  32.8934346025 14.3788772339 15.2893718697  33.2547660996 14.05883234795 14.6354585561  32.8561935683 13.57219792985 14.88798679045  33.39819306905 14.2926656666 15.4005353399  37.6895914637 9.4451586143 10.23531185555  38.1433673174 9.961421388150001 10.55428172505  38.4172106414 11.4476030384 14.4828391597  37.64871570735 10.8377538368 13.522261214  38.22236092585 11.4026206172 13.7150564553  37.64024568009999 11.4925217294 14.08379705125  37.8435654229 10.882736258 14.2900439184  37.44539596455 11.4475393082 13.31601434685  39.4162037913 9.449755571000001 9.933829203750001  38.9492549852 8.4767384161 10.57967632095  39.52294002215 8.415158794849999 9.724540246850001  40.6758673128 8.4813353728 10.27819366915  37.79632769455 8.41056183815 10.02602289865  39.52294002215 7.74576775455 9.8183993987  40.6758673128 7.8119443325 10.372052821  36.5129379931 12.35898234085 13.4324490605  37.13367538190001 12.9117989333 13.7044890456  37.4840181076 12.09025701285 13.9567949279  36.489823712 8.366089657450001 8.085574483949999  36.71908497475 8.32834536845 8.623307112100001  36.94074034805 7.4855941461 8.013084864450001  36.7114790853 7.5233384351 7.4753522363  36.18883120505 7.60926169535 8.023276759750001  34.63812913935 14.1686598129 15.2111170913  36.1275308375 12.61085661205 13.9563724283  35.19911953155 13.17192760895 14.3808998407  34.7997320762 11.89715645575 12.8376385047  35.3645403023 11.84055478315 13.3108242345  39.1200652269 10.5467248622 13.845840471  38.5737882186 10.9521815291 13.39655711095  39.89796626985 10.5968718879 13.227846794  38.4455875999 10.26987046515 13.36612341585  38.1423269 9.203190646199999 9.0479141476  38.6691216394 9.1913738726 9.4514457943  38.19499271565 10.4322971699 13.97154457405  37.52051508865 10.15544277285 13.4918275189  37.4518612478 11.067717922 12.46253571175  37.3236606291 10.38540685805 12.43210201665  32.0445821984 12.3789256733 13.4432077361  33.01762376185 12.41363867245 13.57362375975  32.43176736625 12.57222214955 13.96490472365  32.3935350317 12.79553416015 13.02183711345  32.630438594 12.2203421962 13.0519267722  32.9793914273 12.63695068305 12.63055614955  37.31719534585 10.76522824425 13.28558065175  34.28109256165 11.5601257623 13.40587216995  34.05589231785 11.24429252665 12.39224636575  35.87114163465 12.74934218585 14.33262975775  35.5586993638 12.1270893271 14.29193299365  35.5937637937 12.69675697635 13.51570374355  36.1625952674 13.1805242613 13.1801431782  31.4625638463 11.3175471764 14.0737569546  32.1407581902 12.0415329011 14.2801793329  31.9387401455 11.348492557 13.77064688795  31.75357302235 11.84823642485 13.75848234535  32.61693448939999 12.0724782817 13.97706926625  32.22974932155 11.87918180545 13.4553722787  37.2550257328 8.602698312699999 7.5301159011  37.19814093445 8.93321872165 8.554150568299999  37.2627550439 8.650412687199999 8.5083437771  36.76159703575 8.90576959625 8.112956316350001  37.6915696315 8.6301474381 7.97131015305  37.59869357335 9.63361605205 8.681693592350001  37.6490575705 8.0527232103 8.4816609488  37.77000717115 7.563720516849999 8.9077817345  37.07306574485 10.5478335628 13.03752317485  36.86974600205 11.1576190342 
[...]
<PointData  Vectors="u"> 
<DataArray  type="Float64"  Name="u"  NumberOfComponents="3" format="ascii">1.2187748119169721e+02 9.3450589273989294e+01 -1.4283163612473510e+02  1.1665039010986703e+02 1.1240026005843664e+02 -1.3760487285116253e+02  1.0832113362570053e+02 1.1184931476252117e+02 -1.4224135097690316e+02  1.2345145557565117e+02 1.0200885387766360e+02 -1.4045802120009390e+02  1.1530842084439779e+02 1.0023757985954802e+02 -1.3536904392587957e+02  1.1853533718586206e+02 1.0937941160079865e+02 -1.4443149586943932e+02  1.1324132852164493e+02 1.0081362467611459e+02 -1.4953917730129672e+02  1.0612922619096987e+02 1.0717855989642473e+02 -1.5723479400945268e+02  1.0366492057956081e+02 1.0612807073513270e+02 -1.2994147291046394e+02  1.3082003541605127e+02 1.1249229596274552e+02 -1.4040274514781052e+02  2.4615006474232274e+02 5.9374757326710039e+01 -6.0819744076511519e+01  2.0689978438438436e+02 6.6299738247127280e+01 -8.2608303386969851e+01  1.9161274981314307e+02 6.3059069343484765e+01 -8.1723441440517973e+01  1.7951716602729371e+02 7.3666270084007493e+01 -7.1040726418289964e+01  1.7730261709804290e+02 7.2894232022348405e+01 -9.9324416478472472e+01  1.1386524413664439e+02 8.8751063817581141e+01 -1.3175918971390897e+02  1.2822768746818568e+02 8.5351174292841662e+01 -1.0961849010155426e+02  1.2688619408555310e+02 8.8118814738852080e+01 -1.2592974011128115e+02  1.1586556507987018e+02 8.2691858067222753e+01 -1.1784430768365159e+02  1.1310416247886691e+02 9.8456802772207141e+01 -1.1829798897014759e+02  9.1823406027873773e+01 9.6172065635840340e+01 -1.0411303125671060e+02  1.1477447242878733e+02 7.9895535488150358e+01 -9.9801810144091647e+01  1.2784310872878932e+02 7.1706840538816593e+01 -1.0103586819855975e+02  1.3534740905772503e+02 7.9241911097881172e+01 -1.1503246532894092e+02  1.3894942471200244e+02 8.2206407877165518e+01 -1.2799604031113628e+02  7.7756588192558567e+01 1.5417862755504220e+02 -1.4139752333011259e+02  1.1608360041900336e+02 1.3224516220259221e+02 -1.4087445339288604e+02  1.1305663225151748e+02 1.5358013608505314e+02 -1.4352091470105685e+02  8.4141146143736819e+01 1.3973163713770063e+02 -1.3321035703763346e+02  8.3499571568495483e+01 1.3897204477349746e+02 -1.3788611392350967e+02  1.1021684237265198e+02 1.2504051821941908e+02 -1.4175838303502394e+02  1.0087394922038283e+02 1.4531584313180670e+02 -1.4631213613184968e+02  1.2408384824110200e+02 1.4737770705929432e+02 -1.5092270115455136e+02  1.2701926804389305e+02 1.2698819096629059e+02 -1.4357581639847260e+02  9.6631090361912101e+01 1.0018441706520390e+02 -1.0863831194739035e+02  1.1504759018355169e+02 1.0670135923587068e+02 -6.2135416060733036e+01  7.3351068262700707e+01 1.1534385671228929e+02 -7.3927755193426165e+01  7.8167504206671182e+01 1.1832977476359503e+02 -8.5052538383804887e+01  8.8636384922355035e+01 1.8060110963329805e+02 7.1320614361970470e+01  1.2193550820622633e+02 1.4559181224111393e+02 4.1661277391522937e+01  1.2672463298667829e+02 1.4502074132274308e+02 2.1743179937004076e+01  1.1980570337354906e+02 1.3242904877220934e+02 -3.1966274126322647e+00  1.8091551536120741e+02 1.2347189444318855e+02 1.5554321099638663e+01  1.5936249181341867e+02 1.3086641369044361e+02 3.0274529508349875e+01  1.4458371044623044e+02 1.3249386927968177e+02 4.3650103011652398e+01  1.9923705629981299e+02 7.9919021645241372e+01 -3.9353697253264080e+01  1.0714481843547631e+02 1.3189022140598652e+02 -1.6510832114447899e+02  1.0116750861971373e+02 1.0902512949426955e+02 -1.3717108878965760e+02  9.6554486191848994e+01 1.0895628576529796e+02 -1.6676172799242204e+02  8.9988766317196195e+01 1.2703358354547213e+02 -1.4413249980503366e+02  9.5333254076539362e+01 1.1967253433244811e+02 -1.3254597638613191e+02  9.9009007197265404e+01 1.2455708915920630e+02 -1.5017218511510708e+02  1.6491421321744065e+02 1.1220513586783079e+02 -3.9697140655873380e+00  1.4673534913799389e+02 1.1658732727643039e+02 1.3662327102623166e+01  1.5225024383515628e+02 1.0094073217690239e+02 -2.2828305429619416e+01  1.3463894626233034e+02 8.1230060579692832e+01 -1.2965952196002684e+02  1.5346784355752894e+02 7.3026062385531816e+01 -1.1832083359423365e+02  7.3372900612857407e+01 1.5763506144256019e+02 -1.8852000030685682e+02  9.8109666747259240e+01 1.4223915118935466e+02 -1.6258218650019512e+02  9.1967085002911787e+01 1.2032988594484193e+02 -1.7172531645326018e+02  8.1394294495059029e+01 1.4678661580597023e+02 -1.5095367920605395e+02  1.1361129735175331e+02 1.2465652954299286e+02 -1.5084931814568810e+02  1.2502717491700312e+02 8.8292549339442132e+01 -1.1682410765155777e+02  1.0045000152891316e+02 7.9785207645180293e+01 -1.1197231831799552e+02  1.0421490974778172e+02 9.6445347135808191e+01 -1.0683887991196821e+02  9.6590206174723434e+01 8.1252370716801877e+01 -2.7348469757502568e+02  1.3375808610959530e+02 6.4253809182569938e+01 -1.7469387728325316e+02  1.3628528122143709e+02 5.9326173334319925e+01 -2.1813312633051129e+02  1.3835937098579910e+02 7.7239210136865054e+01 -1.9730639908353970e+02  1.0765357853968780e+02 7.6401651402062967e+01 -2.0799226700003783e+02  1.5371716900968946e+02 7.1048106063370540e+01 -1.6255823087809665e+02  1.5923849632816999e+02 6.1561960978435657e+01 -1.7194333486286791e+02  1.3254864945544432e+02 7.5640726862756551e+01 -1.6984990893191272e+02  1.1467343346141321e+02 7.9051080528275847e+01 -1.7349639351134792e+02  1.6715727147472001e+02 5.0778628143653563e+01 -1.8281646311825588e+02  9.6145813086253327e+01 1.2357460625413648e+02 -1.3147919278891203e+02  1.2134172693178478e+02 9.1421450356742497e+01 -1.3066984822985805e+02  1.1487171397723715e+02 8.3796252936063496e+01 -1.1912290268407195e+02  1.1419879838764234e+02 9.6119538613978136e+01 -1.2906277314967775e+02  1.6726675345493678e+02 1.4377993174722440e+02 -1.4830868218661197e+02  1.4709715994087651e+02 1.2847292404879084e+02 -1.4204750018340843e+02  1.6101792945319565e+02 1.3592959164191458e+02 -1.4496527961123766e+02  1.4248536049282598e+02 1.3283671477882672e+02 -1.4727793973917531e+02  1.2569777054998104e+02 1.2125146527952634e+02 -1.4567136849611759e+02  1.4260360610989486e+02 1.1275749706538517e+02 -1.4134528480480637e+02  1.3034036338895214e+02 1.1927868619761728e+02 -1.4213704104906020e+02  1.4133196232865353e+02 1.1329182892489149e+02 -1.5232172418345519e+02  1.5091446125187994e+02 1.0595651246635701e+02 -1.5382468835276015e+02  1.7629176804154255e+02 1.0544126862227930e+02 6.6975706007398532e+00  1.9091764322072248e+02 9.3413944627332143e+01 1.1292737660489840e+00  1.7500932495585664e+02 1.0897520859330129e+02 2.7270118898862819e+01  2.2770210977516422e+02 8.8963271878588756e+01 2.5876169337528697e+01  2.1086446239419854e+02 9.8645844743622419e+01 2.8709552924175942e+01  1.9784616820031724e+02 1.0975133706209499e+02 3.4251261322145830e+01  2.0021996688110428e+02 1.6287283841845678e+02 1.0573603646480709e+02  1.6564345054379768e+02 1.3493210025253734e+02 4.6714302684154731e+01  2.0241753780061373e+02 1.2471026227742395e+02 6.2758665929076017e+01  1.8752602323012292e+02 1.3463008945982364e+02 5.2961014091343515e+01  1.5374928667235869e+02 1.5230861092055872e+02 6.9882926866326443e+01  1.8942573748951284e+02 1.1622998662905202e+02 2.5574705824256853e+01  1.6073956933995805e+02 1.4039305171044211e+02 3.8402682435712606e+01  1.3966014734938278e+02 1.4827474848309268e+02 4.9478476132334890e+01  5.4554065356933802e+02 -4.6061135178220447e+01 -1.2932771311041557e+02  2.7910271980430070e+02 8.9384502571536437e+00 -1.6732814299640711e+02  3.2560810731518353e+02 2.1101483720812006e+01 -9.4675645387639491e+01  3.0020524580249719e+02 1.5759089046025618e+01 -1.5143972667526955e+02  2.2687570031841690e+02 5.1433503970407024e+01 -1.3687447557943165e+02  2.3172278447003353e+02 5.3458681120229642e+01 -1.0845844336844149e+02  2.1767653172526661e+02 5.1803811767849119e+01 -1.4416535619164185e+02  2.4161793487980700e+02 5.5880956906361405e+01 -9.6506917424811363e+01  2.1554291731357182e+02 5.6486252363750438e+01 -1.5274720374524961e+02  1.2984308897691071e+02 1.2273792031226122e+02 -1.9946946368292407e+02  1.1346904693714866e+02 9.0098068071183363e+01 -1.8967174633138455e+02  1.3941499298561837e+02 8.6159857583305879e+01 -1.7704578417301232e+02  1.2775107419409461e+02 1.0150523322343926e+02 -2.4398958765046814e+02  4.5950043089757298e+02 1.1167479076552880e+01 1.6755982356423711e+01  3.2343991095369387e+02 5.1790287445800367e+01 1.4334690813987387e+00  2.8867992572803615e+02 6.8972137701778536e+01 2.3921597720448982e+01  3.3845722169478029e+02 4.4516593223952967e+01 -2.7984134664132139e+01  4.6206176935931478e+02 1.8751045151495443e+01 -4.5554288302196326e+00  3.1063744922453856e+02 5.7556255873079280e+01 -1.0191646795911687e+01  4.9314081701452409e+02 5.9078288683632948e+01 1.2063921522533471e+02  2.0797939083545111e+02 8.6857621228320795e+01 -2.8279678367287094e+01  2.2529714981838822e+02 7.3472201448013834e+01 -4.6071463588560640e+01  4.9989468118066128e+01 1.2863053881589730e+02 -2.0100840311513597e+01  1.6958001724716073e+02 1.0835785866051518e+02 -3.7327217009977410e+01  1.1003035133175544e+02 1.1295467018296689e+02 -6.4518859498605977e+01  1.4177353935435443e+02 1.1205608208485907e+02 -2.8631306541653387e+01  1.8141393645802933e+02 9.0691231995799583e+01 -5.4809418482144771e+01  1.9258664801811241e+02 1.0427847728241696e+02 -4.8623957090385934e+00  1.5889881445081454e+02 9.3085188923819473e+01 -8.3365285632538203e+01  1.9222529488526865e+02 7.8755657691870084e+01 -6.5855958358394673e+01  1.8031164518708786e+02 9.4905503964242754e+01 -2.3809401056189177e+01  1.6589292136316885e+02 8.5289859980745362e+01 -6.3227164762178298e+01  1.4462275236345576e+02 1.4264917717406357e+02 4.9082397354242694e+01  1.6717173340688936e+02 1.2317629840878485e+02 3.7081846055517097e+01  2.5982588933437097e+02 7.7859408754143189e+01 7.7664016244722646e+01  2.3371328710330272e+02 9.8838043115158541e+01 6.2875776670191669e+01  2.1899307352768338e+02 1.1208876115803541e+02 9.4122235953518768e+01  2.5341983069650891e+02 7.3284546513629962e+01 8.9210446746344374e+01  2.1850117389882718e+02 1.0672871560182753e+02 8.8965242548588407e+01  2.2528017275394870e+02 1.0143872531063026e+02 6.0051402649870177e+01  2.0527146858304667e+02 1.1899205529689965e+02 8.2554148497458471e+01  2.0306325779352619e+02 1.1339910625414934e+02 5.9670777345348803e+01  2.3065607548945118e+02 9.7418762743097105e+01 9.3901111180498219e+01  1.2549108225368565e+02 1.0125659908135950e+02 -1.3836921234983558e+02  1.1097823379044713e+02 1.1381002791105566e+02 -1.3591164116991661e+02  1.1854453392817497e+02 9.8326477181366954e+01 -1.3669565881759064e+02  6.4913626866791716e+01 2.0236520643973824e+02 -1.8279428029909332e+02  7.4779742189436419e+01 1.6589540149999658e+02 -1.4978271685718099e+02  9.5638518108227558e+01 1.6414459556691568e+02 -1.6383985777155129e+02  8.0183301845527154e+01 1.9689455954194884e+02 -1.8352827982318587e+02  2.1645654591400924e+02 8.7751172760363090e+01 -1.1306456988909288e+00  2.3906625037502104e+02 7.3046267486248198e+01 -1.6863407055550020e+01  1.6750825260584762e+02 6.3513301545233709e+01 -2.6539647190505673e+02  1.9164590419038831e+02 5.3107016315050494e+01 -1.7247934570248046e+02  1.9602040206108512e+02 5.4993850854561536e+01 -2.0136815320889372e+02  1.6367716766574839e+02 6.5856235370216808e+01 -2.0166570223202083e+02  1.6406559132706136e+02 4.7741739570759812e+01 -2.2204061823712718e+02  1.7896407560760332e+02 6.4267133928386201e+01 -1.5843550160390083e+02  2.9234932316433458e+02 8.8563267638226705e+01 6.2230532632163303e+01  2.9118489022427036e+02 7.2197755309489523e+01 3.6351218134876056e+01  2.5632769015508251e+02 7.8807940519267817e+01 1.4240049994905624e+02  5.6792166163725813e+02 1.9754646769204502e+01 1.4505432454305787e+02  2.3564832676041445e+02 9.1544902170517958e+01 2.6764948083272156e+01  2.7054264482165746e+02 6.5792214995032907e+01 1.1444867206360158e+02  5.8904392579861815e+02 5.0762411380285911e+01 1.5170289933149175e+02  1.4406857429045556e+02 7.9478758679099570e+01 -1.4462383349884917e+02  1.5902422660190058e+02 8.6628144824965844e+01 -1.4942509191956387e+02  1.6394253057368579e+02 8.0893523031101680e+01 -1.8411629625548161e+02  1.4604027003667366e+02 1.4878330662287482e+02 6.4471436265063147e+01  1.6669961163361694e+02 1.3683071604643069e+02 5.8759649817650264e+01  1.2832601629097877e+02 1.7287581593402027e+02 1.0234240992133871e+02  1.1060979098075268e+02 1.6853495866403233e+02 8.3157155413821116e+01  1.3263123745627971e+02 1.5339491665513830e+02 6.3608990133581457e+01  7.9786092416074823e+01 1.4344788488947646e+02 -1.8455588828774140e+02  1.2951557424114958e+02 8.8643335540228819e+01 -1.5322202748049321e+02  1.0996904797119801e+02 1.0411762635469046e+02 -1.5207868794925744e+02  1.2354734791046569e+02 9.2758528730258490e+01 -1.3121246911432007e+02  1.3083805736152704e+02 8.6810163446280583e+01 -1.3612864876055826e+02  3.0054679576729563e+02 -9.7822522330456358e+00 -2.3179705442528211e+02  2.3319813169978002e+02 3.1382562975274588e+01 -2.0322806119019972e+02  3.2962741618502554e+02 -8.2997850050264859e+01 -2.5455385101950887e+02  2.5044195897238163e+02 3.1501843994422646e+01 -1.8625969260341580e+02  2.1642031720787790e+02 1.0448071411625540e+02 5.6437154424672684e+01  2.4518786782606722e+02 9.3451218656743350e+01 6.2057407878482778e+01  2.0159500602101204e+02 3.4111447406708663e+01 -2.1958492493603063e+02  1.9814996662643307e+02 5.1281482272131740e+01 -1.6414172881131918e+02  1.9626231628390937e+02 6.2183209985520051e+01 -1.1988470767260031e+02  2.0071712428760222e+02 6.2483930381589467e+01 -1.1447628193750897e+02  1.3948565245079538e+02 1.6549118955744009e+02 -1.5258210652542704e+02  1.2606514482253637e+02 1.3765889111445082e+02 -1.4342192603715375e+02  1.3279108352553979e+02 1.5761502191656041e+02 -1.4980521931916820e+02  1.2555745665842986e+02 1.5788675265726255e+02 -1.4382495285825348e+02  1.3006073929206181e+02 1.4464632426266422e+02 -1.4855178502921720e+02  1.1479556772620866e+02 1.3695098075126361e+02 -1.4044423073489295e+02  1.8530524156993280e+02 5.8898910477782493e+01 -1.5407415218249301e+02  1.3146482455534982e+02 9.9693678096745614e+01 -1.3760347079123284e+02  1.2557706814936471e+02 9.5141582809286163e+01 -1.4156051096518345e+02  1.1926269888002096e+02 9.1590341196861672e+01 -1.5996651931486434e+02  1.2172491005144092e+02 8.5887072685950585e+01 -1.5424795759582284e+02  1.2404856872316176e+02 8.9394142787292125e+01 -1.3737258688689286e+02  1.3122542147401936e+02 8.1938631493919758e+01 -1.2552729224201002e+02  2.3753238788494284e+02 1.8021041466174486e+02 -1.2804065971813006e+02  1.5923682748798157e+02 1.5490488860388069e+02 -1.5043218888677765e+02  1.9109723013808758e+02 1.6164370361582928e+02 -1.5718266132584239e+02  1.4882014422220044e+02 1.7544723078957387e+02 -1.6853173726091279e+02  1.4597871144283138e+02 1.4378261471287144e+02 -1.4643048828561979e+02  1.6102097023911517e+02 1.5684987008811410e+02 -1.5016292921550553e+02  1.6484906284994943e+02 1.6226382180974733e+02 8.8595731713047371e+01  1.7823757246556846e+02 1.2548283544394414e+02 5.6566347451094778e+01  1.8596240057297371e+02 1.2630062077273131e+02 6.3394821283602418e+01  1.5778169626879833e+02 1.3929852375865988e+02 6.0034640621440147e+01  1.8646171237611276e+02 1.3179555512532320e+02 7.8243638572117462e+01  1.8551620653635428e+02 1.1140861024096733e+02 4.9613023033061765e+01  2.1185571358192902e+02 1.2187482058260571e+02 8.2388503549083723e+01  2.4161069302925105e+02 1.0022560546293515e+02 7.8250804458378383e+01  1.8313885137659165e+02 6.2818978508734631e+01 -1.3782093923659610e+02  1.7028095789180998e+02 6.9519844267545508e+01 -1.3115091225937908e+02  1.4751683411906359e+02 9.2330044210725788e+01 -2.6373417027962347e+02  1.5425530704423272e+02 1.0264644991340099e+02 -2.3388781535887540e+02  1.0721551122858884e+02 1.1186803514400860e+02 -1.3158648073888907e+02  9.0259959034555067e+01 9.9510908900306674e+01 -1.2677881135052709e+02  1.1058124237018680e+02 9.3294091211887519e+01 -1.2531109062350848e+02  3.0533498181618830e+02 7.0633365361381777e+01 2.6446113843202767e+02  3.0126481175625258e+02 1.2490580121782320e+02 1.6377115229621526e+02  2.0681186423222996e+02 5.9717879246780804e+01 -9.0270348986444404e+01  1.0664445886111498e+02 7.8028337819226337e+01 -1.2714482171590517e+02  2.0213008170983906e+02 9.8266628240761591e+01 4.8635202678140868e+00  1.1323386524108895e+02 9.1777055261188494e+01 -1.2658169787937808e+02  1.8446168838385549e+02 1.7070777700808767e+02 1.0660870446294405e+02  1.2176869918331693e+02 1.7656379814038655e+02 8.9503572276718373e+01  1.3885675261072069e+02 8.4153948549658793e+01 -8.9466628616340017e+01  1.5087084432943803e+02 7.5309360554509837e+01 -9.9864095825629860e+01  1.5469830402914204e+02 7.7515104628554099e+01 -1.1609365311167768e+02  1.3972435249411487e+02 8.8675870997202608e+01 -9.5186164079608190e+01  1.2641784216285623e+02 1.0064029264284201e+02 -9.4039212107190622e+01  1.6800095450597763e+02 8.2505728761003070e+01 -9.1502007441516412e+01  1.5408572390514630e+02 9.7611156087369338e+01 -5.4382369550392660e+01  1.5712938369849707e+02 6.9635463047094206e+01 -1.4432681456909566e+02  1.4957849155340017e+02 7.6058078433034552e+01 -1.3812801843777666e+02  2.4972392742061976e+02 1.8969915290702279e+01 -2.3770782558359423e+02  2.0177546016432711e+02 3.5651167965691364e+01 -2.5810179701408316e+02  1.3883951091831594e+02 1.4947242900955501e+02 4.3859542496173681e+01  1.0745163126440744e+02 8.0678084765915841e+01 -1.1518896810386249e+02  1.3508683045088000e+02 1.3734657214201383e+02 -1.4474330743652331e+02  2.3045650022748958e+02 1.1151693166008451e+02 8.4494200536003277e+01  1.9056398855862091e+02 7.1671505381169212e+01 -1.8309762546559563e+02  1.1199610816266022e+02 1.1727787556911684e+02 -2.2005263381358784e+01  1.4977885502848616e+02 8.5149802539849745e+01 -1.1121843472599173e+02  2.7273126116178485e+01 2.1925262396885662e+02 -1.5015796331885724e+02  8.8940890809731783e+01 1.7114117122366181e+02 -1.5361681387533469e+02  6.1676959798893080e+01 1.6724270211398593e+02 -1.3787959780341598e+02  5.0745752684423145e+01 1.9824733907715861e+02 -1.5257566891570028e+02  6.3959283055921709e+01 2.2027985170749474e+02 -1.4409959616015226e+02  1.2319336012930980e+02 2.1099634689902817e+02 -1.9097015779746928e+02  7.3531481392052982e+01 2.1721271717243712e+02 -1.8736440932365494e+02  1.1879900781836923e+02 1.7051925448177127e+02 -1.6294599413543145e+02  2.8564332548565352e+02 1.5947070353743614e+01 2.5727827320370949e+01  3.7839714651807316e+02 8.2321588991821045e+01 2.0065784205400891e+02  2.2533336140640088e+02 6.5548173103251614e+01 7.7627758376047709e+01  2.3005328772982429e+02 6.3737454668340547e+01 7.6894204826626222e+01  2.7799249492831262e+02 6.2916594287544349e+01 4.6269738914215289e+01  3.6326076506068767e+02 8.7052313260297709e+01 1.3686054823931573e+02  2.7500867161042146e+02 8.3216556417764536e+01 5.9918674900193508e+01  2.4973195838443951e+02 8.0841507214626930e+01 5.3665502564063999e+01  1.3079247571128414e+02 9.3873075016518030e+01 -1.3487915212457068e+02  7.1820724295373310e+01 2.2342350317978793e+02 -1.5609555460814664e+02  7.8231623162432712e+01 1.6712785844939523e+02 -1.4366418630845595e+02  1.0525872351354990e+02 1.7715321755212696e+02 -1.4922198993447083e+02  7.9311081992096064e+01 1.9340765270418080e+02 -1.5732158412000294e+02  1.4016664560896260e+02 1.9411812958071326e+02 -1.8302900647675676e+02  1.0188663581801146e+02 2.1107589322067119e+02 -1.6633144765053248e+02  1.8407714728177081e+02 2.0410995429174824e+02 -1.7055800419886145e+02  1.4141820948945309e+02 1.6944680080392541e+02 -1.5628008646108040e+02  1.1886298774360671e+02 2.0171875583660056e+02 -1.4636739214433743e+02  1.7596859995443634e+02 6.2353285815201922e+01 -1.0527129514331116e+02  1.7624655991067036e+02 6.7657437627077528e+01 -1.0415833266975679e+02  1.9515356965937130e+02 5.9994749850352697e+01 -1.2600304398655804e+02  1.6893231040258183e+02 6.9350294496323130e+01 -1.3487401613665074e+02  2.5919740930910041e+02 8.4151709420264453e+01 6.0977358601008525e+01  1.3394332158608086