<?xml version="1.0"?>
<VTKFile type="UnstructuredGrid"  version="0.1"  >
<UnstructuredGrid>
<Piece  NumberOfPoints="5492" NumberOfCells="24771">
<Points>
<DataArray  type="Float64"  NumberOfComponents="3"  format="ascii">13.7317626657 35.0253906576 35.2047229769  14.1162843313 35.42334527425 34.3167042496  14.1816744563 34.6565564661 34.62092714095  14.235536724 34.96534861895 35.10507088615  14.170146599 35.7321374271 34.8008479948  13.677900398 34.71659850475 34.7205792317  13.6240381303 34.4078063519 34.2364354865  14.7393107823 34.9053065803 35.0054187954  14.6739206573 35.67209538845 34.70119590405  14.6085305323 36.4388841966 34.3969730127  12.8153654115 36.0685469251 31.4977167878  13.76160000435 37.07627918365 32.05385280485  13.6925245626 36.3957741071 31.6840499387  13.46019059165 35.99429651355 32.03015594245  13.04769938245 36.47002451865 31.15161078405  13.1167748242 37.1505295952 31.5214136502  13.2800333534 36.8715021122 30.8055047803  13.34910879515 37.55200718875 31.17530764645  14.1050157718 35.920046102 32.5625950971  13.4181842369 38.2325122653 31.5451105126  12.1532559882 39.1290383989 30.185722025  13.0245959566 39.4517437918 30.40729403  12.74314360605 38.6882711163 30.00410986315  12.8576081456 39.23542045115 30.1754049355  12.43470833875 39.89251107440001 30.58890619185  12.7161606893 40.6559837499 30.9920903587  13.13906049615 39.99889312665 30.57858910235  13.561960303 39.3418025034 30.165087846  13.44749576345 38.79465316855 29.99379277365  13.3330312239 38.2475038337 29.8224977013  15.3368768443 36.7082779535 32.8031454619  14.3775305406 37.4703951094 32.17412798725  15.23793700205 37.40302188525 31.98537909195  15.3252306826 37.43769249785 32.96592289165  15.3135845209 38.1671070422 33.1287003214  14.3658843789 38.19980965375 32.336905417  15.22629084035 38.13243642960001 32.1481565217  15.1389971598 38.097765817 31.167612722  14.27859069835 38.16513904115 31.3563616173  16.1370346454 38.8513123344 34.366860837  16.17861101195 38.75485191115 33.34549231139999  15.6411263768 39.41154539605 33.2941629794  15.72530958315 38.5092096883 33.7477805792  16.5903360742 39.09695455725 33.9645725692  16.05285143905 39.75364804215 33.9132432372  15.9686682327 40.6559837499 33.4596256374  16.50615286785 39.999290265 33.5109549694  17.043637503 39.3425967801 33.5622843014  12.7033227501 35.7179307871 32.44273381295  12.88531844535 36.54599550785 32.6715513984  13.34814793025 35.64368037555001 32.9751729676  13.5301436255 36.4717450963 33.20399055305001  12.5912800887 35.3673146491 33.3877508381  12.0027284836 36.7293868548 31.4024393033  12.71045636025 37.48094956005 31.47377490795  12.6413809185 36.8004444835 31.1039720418  12.40904694755 36.39896688995 31.45007804555  14.6615188978 38.11516684515 34.0351955605  14.16632606685 38.2024794304 33.088425269  14.13442800005 37.59527556640001 33.4870431652  14.0094532747 38.0632266481 34.9416907996  15.5016588954 37.9350857589 35.2726932642  14.9610575266 37.3029956194 33.76283666705  14.75555608505 37.9991562035 35.1071920319  15.40762170815 38.05109640055 34.2006967928  15.05509471385 37.18698497775 34.83483313845  15.01269154635 35.97090218055 35.1240633872  14.57430761305 35.26415541105 35.5279383693  15.07808167135 35.2041133724 35.42828627855  15.4168525604 35.5029201645 35.8511537617  12.47275331745 38.2978734181 30.0037912535  12.24827254985 38.3340262987 30.4232308316  12.3432891115 37.5390141985 30.6607396382  12.8381601677 37.8932590161 30.24161866975  12.4555387058 34.3814107835 32.0773772951  13.08232925845 34.5372734695 32.4973612761  12.9755041781 34.1609353772 31.9552078212  12.8129948974 33.85599008715 32.89067513105  13.170451089 33.3305693908 33.703972967  13.43978545005 34.01185277315 33.31065911205  13.3329603697 33.63551468085 32.76850565715  13.4954696504 33.9404599709 31.8330383473  13.60229473075 34.3167980632 32.3751918022  13.7091198111 34.6931361555 32.9173452571  13.95550743865 37.63005800255 30.88771945945  13.3756077304 38.24000804950001 30.68380410695  13.91293093215 37.63755378675 30.0264130538  13.8864319969 36.949552926 30.5179165933  13.30653228865 37.55950297295 30.3140012408  14.4928306404 37.0276037398 30.2303284063  14.6220064658 37.0089059595 31.86510390955  14.2095152566 37.4846339646 30.98655875115  15.2318963898 40.6559837499 32.5554709078  14.32504031335 39.4442480076 32.0502907102  15.1854467748 39.37687478345001 31.8615418149  15.27274045535 39.41154539605 32.84208561459999  14.1588251717 35.56601017605 33.6571591349  13.5999053105 35.90309942285 33.8923619254  13.90706779145 35.30659112875 32.73997017710001  14.35677315205 36.1794651493 33.4797840549  13.1501999499 35.0302254023 33.1525480476  13.0547719606 40.6559837499 32.3738203393  13.81980186775 39.4442480076 32.306320264  14.2283016665 40.6559837499 32.2386535709  13.6449778975 40.6559837499 31.89179873285  13.23647809875 39.4442480076 31.95946542595  13.6380957296 40.6559837499 32.72067517735  14.2214194986 40.6559837499 33.0675300154  14.2351838344 40.6559837499 31.4097771264  13.82668403565 39.4442480076 31.4774438195  14.67970755365 36.8946979993 31.13873108365  13.75022565045 36.2815661469 30.9576771128  14.2204179475 35.6916301816 31.1098494453  14.16271685965 35.8058381418 31.8362222712  15.3248994425 38.46667883975 35.1585871057  15.1481399896 38.9982719206 35.0444809472  14.57879663215 38.53074928434999 34.99308587340001  15.23086225525 38.5826894814 34.08659063429999  15.9565454826 37.8886150558 34.86056488455  15.8193467704 38.39319904665 34.8197770506  15.86250829535 38.00462569745 33.78856841315  16.2742333576 38.34672834355 34.40764867095  16.4114320698 37.8421443527 34.4484365049  12.91721651215 37.15319937185 32.2729335022  13.5620416923 37.0789489603 32.80537265685  13.0671724631 39.4442480076 31.26860043565  12.6476818724 39.4442480076 31.6254832175  15.6723043978 37.63238198245 34.02821380325  15.76634158505 37.5163713408 35.10021027465  16.0310242747 37.0976569227 34.9277272851  15.3197774035 36.76827055965 34.6623501489  13.2203228331 33.05942411185 32.8091165315  12.8051212869 33.32468307185 32.88971217485  12.4397914848 33.3187967529 32.0754513827  12.854993031 33.0535377929 31.99485573935  12.9676305676 33.6296283619 31.954244865  13.3828321138 33.3643694019 31.87364922165  13.2701945772 32.7882788329 31.914260096  14.6870904971 39.37687478345001 31.2886949242  14.7335401121 40.6559837499 31.9826240171  12.5297249004 39.0974989742 30.82641499845  12.78572011255 38.6807753321 30.8654162688  12.8807366742 37.8857632319 31.1029250754  15.6425873175 38.9247921275 34.7056708921  13.49007226995 38.78715738435 30.8550991793  15.6839505595 36.9029674381 33.8654363735  14.9727036883 36.57358107505 33.6000592373  16.1837967624 36.0115636183 35.156373314  15.9660575929 35.32481972165 34.20876067845001  16.3628198947 35.1226471078 34.7386791709  16.5271288772 35.6793235927 34.84627198045  16.1303665754 35.88149620655 34.316353488  16.0194877799 35.4548871334 35.04878050445  15.8551787974 34.8982106485 34.9411876949  16.870460992 35.3470835671 34.5361706469  16.4736986902 35.54925618095 34.00625215445  16.0769363884 35.7514287948 33.476333662  14.17797222855 37.47306488605 32.92564783925  13.0190676128 38.2378518186 33.0481502166  13.21862592485 38.23518204195 32.2966303646  12.4476650953 33.8501037682 32.0764143389  13.0793205723 35.1527331847 31.831061319  13.99658512525 35.3723155765 32.08069840455  13.59216817205 35.53638964335 32.19682820805  13.6498692599 35.42218168315 31.47045538215  13.4837375255 34.98865911785 31.7149315155  13.8881544787 34.824585051 31.598801712  14.0542862131 35.25810761629999 31.35432557865  13.5178916795 35.88008855335 31.30378311655  12.9473429919 35.6106400549 31.6643890534  14.72094630805 36.31416202775 32.6828702795  12.88086558885 34.34894201995 33.54586190255  13.6665789707 34.5504712537 33.5768903718  13.39724460965 33.86918787135 33.97020422675  13.1076591095 34.8875605005 33.8120931623  13.3942201917 34.9229346701 32.37420328805  12.8353003305 35.2600239169 32.60940607854999  16.05398033155 36.42454285875 34.20203047355  16.5880226945 36.97234704465 34.54710064935  17.1450211143 36.8470371666 34.1664740136  16.61097875135 36.2992329807 33.82140383780001  16.2409489793 36.77765756005 33.48480973775  15.70690661635 36.22985337415 33.13973956195  14.35662429395 36.3596169607 30.6700889258  14.8159139001 37.5626847784 30.69897056415  13.7986371449 34.75886060325 32.25807348455  14.14607416175 36.86586102205 33.32426573545  16.66440893835 36.42930039245 34.6614236638  16.10741051855 36.5546102705 35.04205029955  15.39616364735 36.22522390745 34.77667316335  15.34273346035 36.0951564957 33.93665333735  14.3208805649 34.40561072505 33.58179566345  14.2242152967 34.7992213679 33.96138202625  14.2783397245 34.26294582325 34.24134077815  14.8359760505 34.51169593745 34.6258324326  14.9326413187 34.1180852946 34.2462460698  14.7266579442 40.6559837499 32.8115004616  15.03950265855 39.37687478345001 30.5762778112  14.8939631298 39.44673816535 29.6053798714  14.20493920265 38.7896475421 29.6954523442  14.3504787314 38.7197841602 30.666350284  14.25098423015 39.99889312665 30.0750153732  14.9400081573 40.6559837499 29.9849429004  14.8479181023 38.2374925808 29.2258168424  14.99345763105 38.1676291989 30.1967147822  12.52340939725 34.8743627163 32.7325640666  15.46155377235 35.4584350993 35.0808960547  15.8003246614 35.7572418914 35.50376353785  14.23601419185 38.17263482535 30.49505521165  14.0904746631 38.24249820725 29.52415727185  13.6202435557 39.44691778425 33.057840116  13.7940864922 40.6559837499 33.35378405205  12.76742963905 34.7670719841 31.95421930705  13.8985720687 39.99889312665 30.7874324862  15.1862400456 40.6559837499 33.9479011396  15.24991228325 39.41154539605 33.5383007305  15.57745413915 40.6559837499 33.7037633885  15.6616373455 39.75364804215 34.1573809883  15.29724478985 34.90175861439999 34.97330324515  15.6360156789 35.2005654065 35.3961707283  14.4982386819 34.93103649885 35.6722294
[...]
<PointData  Vectors="u"> 
<DataArray  type="Float64"  Name="u"  NumberOfComponents="3" format="ascii">1.6124505924628752e+02 -2.3485145284603394e+01 -9.7822230303823659e+01  1.6828283346554258e+02 -5.5081598661709272e+01 -8.6669282474887964e+01  2.0127953750534240e+02 -1.0784404888977768e+02 -1.0855748709503165e+02  1.5305659066445745e+02 -4.9666695819550384e+01 -1.4676465590450934e+02  1.4780592182196852e+02 -3.7936846996867345e+01 -9.4372202880668155e+01  2.0598904666941644e+02 -4.5035147613356862e+01 -1.0427941955964265e+02  2.3442410435780565e+02 -7.3261537644104919e+01 -9.8928503105209430e+01  1.6752045190188909e+02 -9.0605294041539892e+01 -1.5018960320026389e+02  1.5296544461940803e+02 -5.2297768088301680e+01 -1.0920465102458492e+02  1.4598588035953750e+02 -3.7186264487163186e+01 -9.3860267126208697e+01  2.0797659837671605e+02 -1.4785283758593996e+01 -6.0119541899307663e+01  1.7393390193888186e+02 -1.8955121170966329e+01 -5.8445315684135096e+01  1.8124256965090797e+02 -2.8588625868836964e+01 -5.8107712033191383e+01  1.9274858485358493e+02 -3.0839340454430804e+01 -5.9649950428491366e+01  1.9029007127706134e+02 -2.4701569112810027e+01 -6.2180878820917272e+01  1.8303400072381797e+02 -1.8016829421941871e+01 -5.5072981480478084e+01  1.8489306026080487e+02 -2.0625753537236672e+01 -5.7851368853815671e+01  1.8394529346763733e+02 -1.2419890655188695e+01 -5.7869495031941305e+01  1.7961833996541068e+02 -4.1663260748197281e+01 -6.2754145778661098e+01  1.8071370090402053e+02 -8.2747316487395750e+00 -6.0909390776547525e+01  2.0842351428579829e+02 -2.5681468402832966e+01 -2.7649247472647623e+01  2.3785846819922224e+02 -3.2732761735416467e+01 -4.7272362491218708e+01  2.2895723125029261e+02 -3.5971687086850707e+01 -2.1213025797564686e+01  2.3544713729026424e+02 -4.1018114172692876e+01 -6.1542830136002049e+00  1.9655679925909868e+02 -2.6235099039894166e+01 -2.0878178227863639e+01  1.6684340793281845e+02 -2.0749876250650619e+01 -2.1505017514794562e+00  2.0484788729070215e+02 -1.0502304860364239e+02 -3.0092569330243735e+00  2.2044910316409079e+02 1.2083642898478423e+01 -1.4310432939537765e+02  2.4124222562501365e+02 2.4591489702006495e+01 -1.6822637589181838e+02  2.3149936149052090e+02 1.4988323704417736e+01 -1.1106075679105456e+02  1.6100008011667802e+02 -3.6321734248353927e+01 -7.4839982503815889e+01  1.6597477119881498e+02 -1.8167154598634568e+01 -6.4861352545391028e+01  1.6417236596789644e+02 -2.0218999433441532e+01 -6.8664418007719632e+01  1.5766730566533394e+02 -2.4311502096475035e+01 -7.9639564445186181e+01  1.5628277032728008e+02 -1.5642811398136320e+01 -8.3091436136617631e+01  1.6417066663219867e+02 -1.2419164234635492e+01 -6.9114091188687226e+01  1.6201878851878786e+02 -1.2475503043063963e+01 -7.4029906080653632e+01  1.6856651362756298e+02 -4.9117316605466321e+00 -7.0882129390496075e+01  1.7525084565358159e+02 -8.0327986035884624e+00 -6.7295568698972005e+01  1.6679858116002754e+02 -8.2331515709863581e+00 -1.0721638198814952e+02  1.5989779017683543e+02 -1.3938028323433114e+01 -8.8244474125080700e+01  1.5474744617678712e+02 -9.9367937202207166e+00 -8.7926996689368039e+01  1.5581690572687214e+02 -1.3149540703183019e+01 -9.4547940800835249e+01  1.6721081275353339e+02 -1.5226398076982269e+01 -9.1371503630386712e+01  1.5754473487271508e+02 -1.5203245904656846e+01 -8.5854565749604419e+01  1.1127875104295812e+02 -1.7855721922438271e+01 -8.6421335852182338e+01  1.3438587215683631e+02 -6.3979938878140288e+01 -9.0203640210041641e+01  1.8675468381695543e+02 1.6826766713147953e-01 -7.9966711902976613e+01  2.0850969021717472e+02 -1.4679411178200100e+01 -4.5715880881878974e+01  1.8300661811141961e+02 -1.1923810834776285e+01 -4.8770757241303485e+01  1.9239808688083423e+02 -3.2729778975054877e+01 -5.7331352181681503e+01  1.7078297977826185e+02 -2.4615855993087589e+01 -6.0000610301893332e+01  1.9918533487173960e+02 -1.5155010620470804e+01 -4.7157659662895369e+01  2.0436362976539499e+02 -2.5406028447054938e+00 -4.8159188290880032e+01  1.8818125779957566e+02 -1.4325449633413914e+01 -4.9892816219583032e+01  1.9181177382592412e+02 -2.2178089888650675e+01 -6.3482123617775606e+01  2.0472668948648791e+02 -4.0861384363835409e+00 -5.8143331983447680e+01  1.4216050929777114e+02 -1.7141328790364369e+01 -8.6409118763715000e+01  1.5558590013699418e+02 -1.3084799253710321e+01 -7.0268829440953283e+01  1.5216630544163141e+02 -1.8814519230362883e+01 -7.2581365879168914e+01  1.1601525681837018e+02 -1.7281671793344682e+01 -8.3072215515888246e+01  1.2567574472015170e+02 -2.1517785110019318e+01 -1.4970774407332263e+02  1.5101667855136566e+02 -2.6354850934409111e+01 -8.5507994902563254e+01  1.0983217091884191e+02 -2.4018044023298213e+01 -1.1293846614130518e+02  1.4634465642482897e+02 -1.8318770082575877e+01 -1.0200656424793476e+02  1.2829808549170602e+02 -3.0590928469195269e+01 -1.1067744689883627e+02  1.3353494685066002e+02 -4.2207993018833768e+01 -1.1816646280600715e+02  1.1192526859953504e+02 -6.8045711010016001e+00 -1.3619671341022473e+02  1.7208543178538994e+02 -4.2171567176401794e+01 -1.8536373011926878e+02  1.0803018579210108e+02 -1.7870089701353322e+01 -1.8925261876270835e+02  2.0996498974594152e+02 -1.8986973637767676e+01 -4.8384364562857442e+01  2.0677484318957545e+02 -1.9160453338839183e+01 -3.7707937531154350e+01  2.0543181737666657e+02 -1.6618972782918142e+01 -4.4622133727550299e+01  2.2041760025021665e+02 -2.2785805458941628e+01 -4.5765086423929439e+01  2.8879139630715031e+02 -3.9278095652176326e+01 -2.9985701185293880e+01  2.3693018890186272e+02 -5.6532098020241477e+01 -5.4201088394792414e+01  2.6445925751214457e+02 -6.5880007611128519e+01 -6.1309643452529464e+01  2.6104010865174013e+02 -6.8387624166642709e+01 -5.5348303325853081e+01  2.9906468684615027e+02 -1.2034484277199557e+02 -8.3655160433628524e+01  2.4052147115809362e+02 -8.7162656260538370e+01 -6.2257723741519953e+01  2.4787480695887996e+02 -9.2630493750540865e+01 -5.1353736148604938e+01  2.4513623659315775e+02 -8.9672756950796071e+01 -8.5575368654407740e+01  2.2598474974986257e+02 -7.5061468782369843e+01 -6.2514192695814820e+01  2.1164086103762335e+02 -6.7435086880973316e+01 -6.2280541672831625e+01  1.7729296127671148e+02 -9.3458227380759542e+00 -6.2019645709106328e+01  1.9690534123584186e+02 -6.4914631241451497e+00 -6.6491690949306516e+01  1.7285413880190336e+02 7.0526680634803496e+00 -7.4045282280652145e+01  1.7244217487698688e+02 -1.5254469801223591e+01 -6.0138861426569086e+01  1.9146481095974988e+02 -8.6058339779196231e+00 -6.3592476346843490e+01  1.5921315050082080e+02 1.5091723002411792e+00 -4.7991231276906895e+01  1.6767976524973281e+02 -2.1742411369405637e+01 -6.0662850051276152e+01  1.7286231339219381e+02 -9.0068258621579069e+00 -6.2597479796232086e+01  1.5552665061358962e+02 -1.1594847131077446e+00 -8.5840525373261784e+01  1.6802364679029509e+02 -4.7790770564372460e+00 -7.2897344132934947e+01  1.6242740407115974e+02 -2.8952909887608569e+00 -8.1715499827994719e+01  1.5623084321445384e+02 -7.8606583637206766e+00 -8.2300642266531796e+01  1.7535201331731324e+02 -5.2990898813096528e+01 -7.1730379200719085e+01  1.6768876980476412e+02 -3.1340982932354486e+01 -6.7364337335915749e+01  1.9439829679550502e+02 -5.4355747619982758e+01 -6.2519386538440457e+01  1.6540234825726034e+02 -4.1196200364343547e+01 -7.3744152104873564e+01  2.1043862389313981e+02 -4.2211493478299552e+01 -5.7531336766446181e+01  1.6517551027272114e+02 2.2810104261362679e-01 -4.4062920464621186e+01  1.6582910964969022e+02 -6.7651324087550950e+00 -6.1366071650612980e+01  1.6880722646218877e+02 -8.3166251269562819e-01 -6.8337880821226221e+01  1.8036280189672942e+02 -8.9250636517375237e-01 -4.4462460145087832e+01  1.7510890584870617e+02 -7.6319100268809317e+00 -5.2143569237588594e+01  1.6007869535121222e+02 -7.6971061653889533e-02 -5.8410508946266326e+01  1.5300325561156353e+02 1.2742645318918280e-01 -7.1134375694672016e+01  2.0393023944633143e+02 -3.0393608657426552e-01 -9.0537236627217055e+01  1.8696252916246121e+02 -1.2582222598295367e+01 -5.7954013854500282e+01  1.6858482727395756e+02 -1.6974065463311806e+01 -5.2279183610445827e+01  1.7347091265874306e+02 -2.8306532462843325e+01 -5.5558114405023922e+01  1.7163614446333145e+02 -5.0512446627510258e+01 -4.2836086184409538e+01  1.8035970209269334e+02 -4.6842984778166645e+01 -5.8871950974562786e+01  1.3575025530427462e+02 -1.4782746408580662e+01 -1.5079897774083213e+02  1.3294066771196975e+02 -4.6580224557643888e+00 -1.3034751784353188e+02  1.1093413410944798e+02 -1.8200010848334347e+01 -1.0944375493140748e+02  1.4551716636806378e+02 -1.3234034987657722e+01 -9.6813250887319370e+01  1.4880685024009657e+02 -2.0102019070430245e+01 -1.3443344489673345e+02  1.4769731949204672e+02 -4.0787426436083409e+00 -1.2378753101522140e+02  1.5384597478381349e+02 -1.6693830238656211e+01 -9.5629416503004336e+01  1.7938121218421188e+02 -7.3677146999678449e+00 -1.1638868438993448e+02  1.6912215140176050e+02 -1.2081679632102070e+01 -1.1126011644932289e+02  1.7799266608295301e+02 -1.0981918864230774e+01 -4.9048082789129268e+01  1.6883374778306546e+02 -1.6909315330150349e+01 -5.9606362816334972e+01  1.9451119500301556e+02 -2.9472475329206429e+01 -3.4539852990505629e+01  1.8317676923250605e+02 -1.1724758112075074e+01 -3.5869447880274876e+01  1.4930823185838133e+02 -2.2810253147676089e+01 -9.8352887504795561e+01  1.4108288827169562e+02 -2.6337387076434378e+01 -1.4177672596249181e+02  1.5249201150908601e+02 -3.4659435738981692e+01 -1.3498137972785531e+02  1.3968938618125520e+02 -3.9760641094850399e+01 -1.1338278506544677e+02  2.6404351256465736e+02 -1.1432781475258956e+02 -4.4994014215731674e+01  2.8219124068543300e+02 -9.3666939178150855e+01 -5.6002134682036953e+01  3.2630853862295100e+02 -8.7634865649156609e+01 -2.9596597543452841e+01  3.0380975216441766e+02 -1.0717980148148554e+02 -6.1791205517438776e+01  2.8098070244449718e+02 -8.1469744586040775e+01 -6.1745840830219976e+01  2.7371166584251210e+02 -1.0726222442534636e+02 -9.1080804804399264e+01  2.7082372731421793e+02 -1.1859282718210282e+02 -9.2247788031605225e+01  1.6784916376529290e+02 3.6725352816115491e+00 -8.2801063248232893e+01  1.6568199164887761e+02 6.4267140045706483e-01 -8.2605606107184954e+01  2.0129520264309730e+02 -1.6736625761985717e+01 -3.8253546468266130e+01  1.9991240793312463e+02 -1.5777970209215638e+01 -4.5065553263757998e+01  1.9221504191994873e+02 -1.2602760687402183e+01 -5.0971319344561223e+01  1.4906309534508361e+02 -7.7416400200742972e+00 -1.1183133240529209e+02  2.0402342788427569e+02 -1.3715636528338486e+01 -6.4667947484900296e+01  1.5101009463423358e+02 -3.6241993298187353e+01 -9.6737795378150821e+01  1.5563027662239315e+02 -3.9084008465062858e+01 -8.3788725016419775e+01  1.5311964755106308e+02 -5.4042297959032837e+01 -1.4560211022700909e+02  1.6050564482904429e+02 -9.6288168864609560e+01 -1.0220404701367784e+02  1.6378545677922278e+02 -1.1133196311617927e+02 -1.1806428817676850e+02  1.4469322226315475e+02 -8.7066733437790333e+01 -1.2776197129783793e+02  1.5038837183137369e+02 -7.0144760246321312e+01 -1.1195026792125029e+02  1.5919605920156354e+02 -7.4228872233541409e+01 -1.7598429420989837e+02  1.6098998936581975e+02 -1.3475005077143595e+02 -1.4355964733598879e+02  1.4354317546094964e+02 -1.0311653582540693e+02 -1.2062757321636110e+02  1.5113126443131870e+02 -8.5104798806293601e+01 -9.6056693994583171e+01  1.5564666070891997e+02 -7.0664591582005400e+01 -8.5297734014948645e+01  1.6045488734742725e+02 -1.9178646934068986e+01 -6.7891637062572229e+01  1.5623412150563655e+02 -8.1103751199448730e+00 -4.9964190674423122e+01  1.6930355329365150e+02 -9.9263371088513690e+00 -5.2255011249904030e+01  3.1970144399259129e+02 -5.8016050174630891e+01 -3.5114653737426345e+01  2.3492841081400292e+02 -3.9107266375069933e+01 -5.8288750254820080e+01  1.8822078958129308e+02 -5.4988948866180493e+01 -6.1808310506660646e+01  1.9819888304527177e+02 -4.4003178618041858e+01 -6.1800421780942038e+01  1.9972274831799569e+02 -5.6242308491167563e+01 -6.1950644324613840e+01  2.1837586267060996e+02 -5.7815156955984214e+01 -6.9089675550045158e+01  2.0154012388442482e+02 -7.7788395519436818e+01 -8.3268500822366093e+01  1.8346300236467147e+02 -8.3390841866666307e+01 -7.5525530325118794e+01  1.8694386336744071e+02 -3.7824252924604551e+01 -6.4401108469547580e+01  2.2626265186401298e+02 -2.0070374653856231e+01 -5.9527756028273913e+01  1.6708116834458735e+02 -3.9947204678736561e+01 -6.7739096879428956e+01  2.2891625520829882e+02 -4.5404755369563141e+01 -6.7712126746785501e+01  2.1607660409139328e+02 -7.4524573910634217e+01 -6.7164656914172113e+01  2.9230053839313126e+02 -9.4306814176065942e+01 -1.0807305121971807e+02  2.0512545163341437e+02 -3.4087623156181962e+01 -7.1135253072284058e+01  2.1845771193193988e+02 -5.2910854097471955e+01 -6.0301670278915765e+01  2.1830996342869150e+02 -2.7717258685164769e+01 -4.7956993397680669e+01  1.5217363909298612e+02 -4.9093043818422558e+01 -1.0486064754787662e+02  1.5473113866457018e+02 -3.0265561625614673e+01 -1.0770127402492027e+02  1.3222540773231930e+02 -2.6528267570053462e+01 -1.0172850864118904e+02  1.4577788027927622e+02 -5.3160013313147850e+01 -9.8668999762282525e+01  1.5002631306829571e+02 -3.8921537592540034e+01 -9.1123985139639871e+01  1.5759634755765427e+02 -4.9536307525710036e+01 -7.9688705112682271e+01  1.5835916237077276e+02 -1.6158939492109329e+01 -3.7698872178161245e+01  1.6742930431341605e+02 -1.3616842236211690e+00 -6.0259009750435467e+01  2.0675941844562973e+02 -6.9002224851983144e+01 -6.3780440108235148e+01  1.6104545970521261e+02 -2.6970655135496827e+01 -6.9760371605555619e+01  1.3957293121845089e+02 -3.6289379471603191e+01 -1.0981803333847878e+02  1.6039889088059849e+02 -4.6664438742170965e+01 -1.4031809061285668e+02  1.4188611184873730e+02 -4.7925445470931734e+01 -1.2006808718400430e+02  1.5516797140591950e+02 -5.5403586191381386e+01 -9.4041060924206263e+01  2.0097044769228518e+02 -1.0294752521074135e+02 -5.9740728775586071e+01  1.9251055440571616e+02 -8.9228019797050308e+01 -7.4031996569885109e+01  2.0539210471055455e+02 -1.4424781857369408e+02 -7.2333031887768129e+01  1.7272938865850767e+02 -1.3494966449225373e+02 -1.1263035728611058e+02  1.8450449263514838e+02 -1.6660466334600696e+02 -6.9735170304240114e+01  1.5593956453627743e+02 -2.6997351569309441e-01 -7.8509816677417149e+01  1.5425520510081699e+02 1.5837348780483563e+01 -8.9491545844356537e+01  1.5778603441811507e+02 1.9586203292889842e+01 -5.8339806348188851e+01  1.2445234222265779e+02 3.2899432032702322e+01 -8.7538676267129873e+01  1.7589884033184092e+02 5.1665560768262946e+00 -8.1775585573225996e+01  1.0751514105946627e+02 8.0720880610409253e+01 -1.2302017488282553e+02  1.1509663728705614e+02 2.2721140110951470e+01 -8.8867553946750419e+01  1.7703666594315646e+02 1.9701036210122268e+01 -6.1317157197592145e+01  1.6906929772952805e+02 1.2354623981662751e+01 -6.8887766044902250e+01  2.3546056984078959e+02 -2.5444490169093090e+01 -3.8849612160756877e+01  1.4237952811748988e+02 -7.2884184902328826e+01 -1.4949791567180847e+02  1.3956909024097669e+02 -3.0891239995847481e+01 -1.5834037105982762e+02  1.6819708782709625e+02 6.1784642731880339e+00 -7.6450730747129796e+01  1.3270394399033557e+02 3.1696120490792197e+01 -9.2567327361367845e+01  1.5284824472568678e+02 -6.1963088650410896e+00 -6.0916403813024957e+01  1.4684350578289207e+02 1.0211331368179113e-01 -6.6181942778987619e+01  2.6365035223551195e+02 -4.4744768820667794e+01 -4.9428486092351648e+01  2.4437922382965507e+02 1.8142101677984319e+00 -1.1471656104315863e+02  1.3872731181482385e+02 9.1449368398507758e-01 -8.3665014316912576e+01  1.5160751412482782e+02 -8.9648780892623776e+00 -8.6627052266113296e+01  1.4252789532989084e+02 -2.4147574692334386e+00 -8.6400673163725344e+01  1.5194385548134545e+02 -8.8510438212190010e+00 -1.0000651078048018e+02  1.6639284265373715e+02 -1.1969900116890881e+02 -1.4759943082534156e+02  1.1034778337245530e+02 -1.0837662569822459e+02 -1.7790183857454619e+02  7.9919403179133610e+01 2.8756019431658963e+01 -1.3722840998353618e+02  1.2785116760142768e+02 -1.1206177289708705e+00 -9.6657211826802424e+01  1.3726268047230926e+02 -7.1860698440439270e+00 -7.8867501065319516e+01  1.1653395890683420e+02 -1.1440875298094147e+01 -9.1397822195473253e+01  1.4551960808679428e+02 -5.9035871923856771e+00 -8.6082614675477203e+01  1.4278053751907467e+02 1.7283323864393010e-01 -7.5792752483406289e+01  1.5244165442903002e+02 -7.3787515354677859e+00 -7.9706676641198428e+01  1.6961082525595907e+02 -3.9569995309288203e+01 -5.7755948538413428e+01  1.5034972670909983e+02 -6.5048886501887665e+01 -1.2008460217578900e+02  1.6169516727278102e+02 -8.3979700669962952e+01 -1.0447563569831090e+02  2.3912583082305366e+02 -9.7810760965144072e-01 -3.8316693225687651e+01  1.4648933582610078e+02 2.2736462201089974e+01 -5.8676095620552097e+01  3.4693712105474071e+02 -1.7828283421349607e+02 -6.1532612238037167e+01  2.7607229247821550e+02 -6.5013361061875187e+01 -6.5948416663256779e+01  3.0383720992389726e+02 -1.1169801028707083e+02 -5.1485899035514635e+01  3.4468135821324404e+02 -1.5635849965162674e+02 -7.0360063630462292e+01  2.5241395271925882e+02 -4.7608378930681063e+01 -6.5466407412053854e+01  2.2561641653359743e+02 -9.8370214136314317e+01 -5.2993164792014944e+01  2.7875629488789303e+02 -1.6011980896405925e+02 -2.5915661515385224e+01  2.3853565614647724e+02 -1.5496482762755278e+02 -1.0291852884255004e+01  2.2580986295922648e+02 -1.0094799858826403e+02 -5.5526066635764344e+01  2.4130351233874512e+02 -6.4829173827481796e+01 -6.8889342405193602e+01  2.5419529983225860e+02 -1.3233029672514328e+02 -4.6380332410629237e+01  2.1748030964616049e+02 -1.7617394857312721e+02 -2.0221944951167139e+01  3.2463740791516136e+02 -9.9082827410070180e+01 -3.2352092155826725e+01  2.0059623947541729e+02 -3.1669277813120029e+01 9.3036446868832829e+00  1.4751877392337028e+02 -4.8555528308003151e-02 -8.5797673695097885e+01  1.4646716387026046e+02 -3.6363165676014902e-01 -8.0343108708233402e+01  1.5988301558900329e+02 -2.9441945665277160e+01 -1.2632138557136570e+02  1.5180946704918617e+02 -2.8593344820155906e+01 -9.2017954448750743e+01  1.5909334205405236e+02 -1.3677369488198087e+01 -9.9652668948114737e+01  9.8900907870534127e+01 -4.4971914052859773e+01 -1.5571566778701015e+02  1.3033623372223622e+02 -3.7618942840283836e+01 -1.1721092369598755e+02  1.4383711565869274e+02 -5.6483216449530765e+01 -1.4442402242257782e+02  1.3113171058957167e+02 -4.3118910297292899e+01 -1.5161145195958031e+02  1.8002499871867573e+02 -8.7497860756175641e+00 -4.3304112573151336e+01  1.8501194703025234e+02 -9.6218256280931627e+00 -3.0431929811681588e+01  1.9343565373839590e+02 -2.1198536581925516e+01 -5.3815577418117122e+01  2.8538888866839358e+02 -1.3117944964678790e+02 -4.0178106777222702e+01  3.2703566862890364e+02 -1.4342617835981812e+02 -4.4916488077403784e+01  3.5702761369182258e+02 -1.2014599622509097e+02 -3.5347766232923782e+01  3.8833967185442026e+02 -1.6891183193198404e+02 -4.4371189669095095e+01  1.9846870852415435e+02 -2.4056671537693134e+02 8.4063591824033480e+01  1.5409517632537290e+02 -1.9147474559124865e+02 1.2429093029638739e+02  1.9713598565559153e+02 -2.8060254159210928e+02 2.4090663570759844e+01  1.5351091106599989e+02 -1.7852141669364806e+02 5.1882176111527983e+01  1.2722480461630549e+02 -1.9065703759519329e+02 3.3202099134427613e+01  1.8330789758264913e+02 -1.8840764712499600e+02 4.1955413024757391e+01  9.2701452867846399e+01 -1.9896335210068560e+02 4.6744658271647744e+01  2.0365427205696770e+02 -2.2534596741978439e+02 1.5394176100992260e+01  3.1226223012017522e+02 -1.4348479187359595e+02 -7.8382791872829969e+01  4.0493817374753746e+02 -1.5826594180374894e+02 -8.5819763065816375e+01  3.7250153181072289e+02 -1.6192646738302793e+02 -2.8404208347444783e+01  3.7287732588876418e+02 -1.6337354650591828e+02 -9.0171842387041565e+01  1.5027330419411280e+02 6.2774221607751866e+00 -7.8049535344374988e+01  1.4482175725430992e+02 -4.7963144602238632e+00 -9.2020691221613703e+01  1.3739838830107269e+02 -6.6282399024826830e+01 -1.206158839543