<?xml version="1.0"?>
<VTKFile type="UnstructuredGrid"  version="0.1"  >
<UnstructuredGrid>
<Piece  NumberOfPoints="5617" NumberOfCells="24035">
<Points>
<DataArray  type="Float64"  NumberOfComponents="3"  format="ascii">34.0567730979 11.6433941638 27.589903252  34.25193586695 10.81519005595 27.10737495745  34.50487192915 11.31643617335 26.82246048225  34.6493588536 11.33509942995 27.39139451965  33.91228617345 11.6247309072 27.0209692146  33.65935011125 11.1234847898 27.3058836898  33.767799249 11.6060676506 26.4520351772  33.5148631868 11.1048215332 26.7369496524  33.2619271246 10.6035754158 27.0218641276  35.2419446093 11.0268046961 27.1928857873  36.890603615 9.6508506835 25.2225758905  36.60047696345 9.345329136549999 26.27314743775  36.7452379972 9.829485006399999 26.1315549853  36.44064635045 9.96071815665 25.6952138768  37.19519526175 9.519617533249999 25.658916999  37.050434228 9.0354616634 25.80050945145  37.4997869085 9.388384383 26.0952581075  37.35502587475 8.904228513149999 26.23685055995  37.210264841 8.420072643299999 26.3784430124  35.9906890859 10.2705856298 26.1678518631  34.70693295365 10.6251204151 27.5866056329  34.83872219205 11.1356696072 27.9700699278  34.11434719795 10.93341514895 27.78511436525  34.24613643635 11.44396434105 28.16857866015  34.4354997748 11.2445345183 28.7472540683  34.3037105364 10.7339853262 28.3637897734  34.171921298 10.2234361341 27.9803254785  37.3682496049 11.6407911704 26.1176162365  36.6794693454 10.9556884001 26.1427340498  36.3565020695 11.6126560767 26.01869394195  37.00833859995 11.3049981084 25.6026472067  36.648427595 10.9692050464 25.0876781769  36.31955834045 10.6198953381 25.62776502  35.1526203409 9.637108293100001 27.2494722971  35.1972824751 10.3319564946 27.2211790422  34.7622020076 10.16644748905 26.46259226125  35.02834169295 10.2436700096 26.5703420124  34.8068641418 10.86129569055 26.43429900635  34.9176211186 10.0188194503 28.8592383564  35.07978286395 10.5228120732 28.02606207185  35.03512072975001 9.8279638717 28.05435532675  35.68633603035001 9.973220742900001 28.1757777477  36.4550509421 9.927622035500001 27.492317139  35.8484977757 10.4772133658 27.34260146315  35.8038356415 9.7823651643 27.37089471805  36.3779928351 7.6497188997 26.6740981386  36.18973300855 8.25120860735 26.2150277132  36.18144259095 9.028590468200001 26.81395765475  36.79412883805 8.0348957715 26.5262705755  36.83265789155 9.1738473394 26.9353800757  35.5716547134 9.953846961450001 26.7086620801  36.222870014 10.09910383265 26.83008450105  35.6294066514 8.811211323 28.6780502662  35.8170224685 8.840529677500001 27.6428841132  36.4682377691 8.9857865487 27.76430653415  36.04222879675 9.369416679250001 28.0851837026  35.39101349614999 9.22415980805 27.96376128165  36.05541562374999 8.427581192449999 28.35717309775  36.4814245961 8.0439510619 28.0362959293  36.4165218886 8.788670467599999 27.0832076388  37.5141746564 10.4950595837 26.0137641294  36.53715519715 10.73349082215 26.80036625875  37.2988979824 10.8457277991 26.7233223919  36.98461279925 10.2113408096 26.7530406342  36.75243187115 10.38282260675 26.09080799625  36.76933612525 10.562009025 27.4625988967  37.0836213084 11.1963960145 27.4328806544  37.2023891357 10.0729551336 25.61817000995  37.50698078245 9.94172198335 26.05451111845  36.14431688255 10.03919211395 25.25924964925  36.769515605 10.31002786495 25.1551270337  36.4731861371 10.38850182225 24.71916280615  35.5453721019 7.8682862268 27.413482246  35.3489962214 8.752697259950001 27.33147727155  36.000211522 8.89795413115 27.4528996925  35.273513885 9.415015386650001 28.7686443113  36.013398349 7.956118644349999 27.72488908765  34.5991762274 8.641679008000001 27.9860301524  34.87589828415 9.139393650550002 27.61775122475  35.58738937664999 8.3397487749 28.0457662561  35.07227416465 8.2549826174 27.6997561992  35.1142914394 8.726445165499999 28.3320402093  35.3447545341 11.584520983 25.9197716474  35.2933495717 11.30566283955 26.55632871735  35.66772181 10.9275533064 26.04381175525  35.6163168476 10.64869516295 26.6803688252  37.44121213065 11.06792537705 26.06569018295  37.0813011257 10.73213231505 25.55072115315  36.9774189253 9.658003209250001 26.79378762325  34.8147387766 9.4605353231 25.9477982375  35.579945131 9.1764651006 26.10973213855  35.40271393125001 9.86556047645 26.0578250503  34.98367955875 9.548821808100001 26.5986352673  34.66227081945 9.9302722136 27.6148988878  34.54477120830001 10.1211277922 28.41978191745  36.91622455725 7.994926177449999 25.95223842025  36.6711583067 8.095426183699999 26.01269838365  37.08729430965 8.4806030555 25.86487082055  36.9643237783 8.5411334677 25.3512986287  37.2320553434 8.964758925350001 25.7232783681  36.92746369665 9.0959920756 25.2869372596  37.0022859252 7.94202422975 27.1461038652  37.0540018057 8.139140310849999 27.82720276055  36.84584471855 8.232011852599999 27.20736947085  36.4297087156 7.8468349808 27.35519703395  37.41842192815 8.327201101549999 26.9982763021  37.6265790153 8.234329559800001 27.6181095918  36.21418792125 11.39045849875 26.6763261509  37.22593545665 11.41859359245 26.77524844545  37.0408149787 9.080975797650002 27.5552133654  37.5733196912 8.72704317725 26.6433317151  37.9363745414 9.0340137112 26.9082204178  37.19571274175 9.48081787335 27.2002687784  37.78147677835 8.6341716355 27.2631650048  33.7169242113 10.41350577495 27.50109480305  34.303089872 12.5860706678 26.7458404435  34.77251724065 11.80643768195 26.9693631154  34.0354445605 12.0960691592 26.59893781035  34.17993148495 12.1147324158 27.16787184775  33.1833076655 9.318849826399999 27.8291240804  34.3855487627 9.432557571050001 27.98317781545  34.1679640032 9.47797905975 27.53929818875  33.89124194645 8.980264417200001 27.9075771164  33.67761448175 9.77114298025 27.90472477945  37.71808072495 9.211199047099999 26.50173926265  35.0434953857 13.5118764129 26.2077194856  35.706352845 13.6489723798 25.57905364055  35.8045396475 13.1058210282 25.8958624132  35.6486409407 13.79838775565 26.13825464885  35.10120729 13.36246103705 25.6485184773  35.1589191943 13.2130456612 25.089317469  35.8622515518 12.95640565235 25.3366614049  36.2537864957 14.0848990984 26.0687898121  36.4096852025 13.39233237095 25.82639757645  36.5655839093 12.6997656435 25.5840053408  34.758398673 9.330249229150001 28.4226342544  34.6765604467 10.6316769843 28.80324621235  34.20727373275 10.12034185445 27.13566821235  33.22261739505 9.9612126211 27.425494104  35.19412495989999 12.54819869795 26.0637455665  35.2518368642 12.3987833221 25.5045445582  35.9551692217 12.14214331325 25.7518884941  34.55627689155 11.5952943168 26.1859034123  36.4775064321 9.40585954875 25.7595752459  34.51856381585 12.995120923 25.87265176965  33.993632246 12.4783654331 25.5375840537  34.66919339005 12.03144320805 25.72867785055  34.57627572014999 12.84570554715 25.31345076135  36.16278295885 11.1116003553 27.31288322085  34.148361059 12.53221805045 26.1417122486  34.82392220305 12.0852958254 26.33280604545  34.67329262885 13.04897354035 26.47677996455  33.8807157475 12.04221654185 25.99480961545  35.9616824685 7.75900256325 27.0437901923  36.60700575215 11.83448534495 25.33584175885  36.9669167571 12.17027840695 25.85081078865  40.6758673128 31.1487860004 33.9891457916  38.9811974588 30.8454261234 33.53834822395  39.19508224895 31.5692879722 33.2939247086  40.6758673128 31.14917194785 33.35145252745  40.6758673128 31.1495578953 32.7137592633  38.9811974588 30.84581207085 32.9006549598  39.19508224895 31.56967391965 32.65623144445  37.7142971851 31.989789944 32.5987036256  37.50041239495 31.2659280952 32.84312714095  37.2865276048 30.5420662464 33.0875506563  37.5610871801 21.4521952714 32.6243331562  38.71494685075 22.02523504145 32.08326139685001  37.84023412685001 21.96041354305 31.933796264  39.11847724645 21.90350603435 32.48451590515  38.43579990400001 21.5170167698 32.77379828905001  40.6758673128 22.3548167973 32.3446986541  39.3976241932 22.411724306 31.79397901295  39.99318997035 21.96832753275 32.633981038  39.3105126279 21.5818382682 32.9232634219  38.1193810736 22.4686318147 31.2432593718  36.3715823511 23.8323155036 37.8897315662  36.7364165557 24.65972222045 37.48246505625  36.50858903370001 24.840254041 37.9174391783  36.1882767786 24.38202581235 37.50259625229999  36.9197221282 24.1100119117 37.86960037015  36.6918946062 24.29054373225 38.3045744922  37.0122068613 24.7487719609 38.7194174182  37.2400343833 24.56824014035 38.28444329615  37.4678619053 24.3877083198 37.8494691741  36.0049712061 24.9317361211 37.1154609384  36.8651423533 19.6908183966 24.9155088286  37.61125311025 19.87149363605 25.32483962555  37.34140542155 19.5528496286 25.56712312495  37.57515411825 19.57103801045 24.7825889881  37.134990042 20.00946240405 24.6732253292  37.4048377307 20.3281064115 24.4309418298  37.84500180695 19.8896820179 24.5403054887  38.2851658832 19.4512576243 24.6496691476  38.0514171865 19.43306924245 25.43420328445  37.8176684898 19.4148808606 26.2187374213  34.8635675956 28.9828015583 40.6433994556  34.5445288367 28.8574269051 39.62998041485  35.10482282225 28.79590332245 39.26833027995  35.1141293119 29.49985693945 39.20241996065  35.3646910282 30.0169123206 37.7614404657  34.795090553 29.37448228625 38.1890009199  35.35538453855 29.3129587036 37.827350785  35.3460780489 28.6090050866 37.8932611043  34.78578406335 28.67052866925 38.2549112392  34.2254900778 28.7320522519 38.6165613741  38.709502623 27.7287279051 37.8541623614  39.3018012764 27.69258268445 37.7098460173  39.6926849679 27.48392392125 37.3002918147  39.01418175815 27.4652500295 37.87862359325  38.99712214125 27.95606056005 37.68538478545  39.2847416595 28.183393215 37.5166072095  39.98030448615 27.7112565762 37.13151423875  39.3188608933 27.2017721539 37.9030848251  39.99736410305 27.22044604565 37.32475304655  40.6758673128 27.2391199374 36.746421268  31.1319396528 38.2576655403 31.1053469813  31.81476369795 38.2685338309 29.9969892048  31.8989600849 38.1683172111 30.6731033541  31.1150169079 37.
[...]
<PointData  Vectors="u"> 
<DataArray  type="Float64"  Name="u"  NumberOfComponents="3" format="ascii">1.2928874888176503e+02 2.2996832383194155e+02 2.7086720325703260e+02  2.3142458098975973e+02 1.8841413435243342e+02 2.0180386953554606e+02  1.9038511185330734e+02 1.6462921534734028e+02 2.0616547460758892e+02  1.6795977232824117e+02 1.6172180000233504e+02 2.1647401162162680e+02  1.8853169794892838e+02 2.2898664509612317e+02 2.4585507828402720e+02  2.3781438747648667e+02 2.6630982676863016e+02 2.1136264052824234e+02  2.4777453760550972e+02 1.8971493029876700e+02 2.4573822173219511e+02  2.9109912998497111e+02 2.3994618172061271e+02 2.6106539390920540e+02  3.8317637023627401e+02 1.9625262376510494e+02 1.1236725296720714e+02  1.8210495688655891e+02 1.2917104747672309e+02 1.9979198721626716e+02  1.5525846269553864e+02 1.2089027050886412e+02 2.3236033610370237e+02  2.0207219305721412e+02 1.1912551344063640e+02 2.2780452751201946e+02  1.9564576097566339e+02 1.0956554681293116e+02 2.2724383908621181e+02  1.7818896061254688e+02 1.0850048622924318e+02 2.1010100218579393e+02  1.8006988696940877e+02 1.3172248272018899e+02 2.4655859766585141e+02  1.5952410857751815e+02 1.5705871993232290e+02 2.4479219030179880e+02  2.3910477799490738e+02 1.2933902308971267e+02 2.7756102944709352e+02  2.2534696295120503e+02 1.4797979823607693e+02 3.1942086734733630e+02  2.1919177595502333e+02 1.4600089907157252e+02 3.1655401132777979e+02  1.9002511895239414e+02 1.0775331147995460e+02 1.9885996904209830e+02  2.1195467990539001e+02 1.5602229368959232e+02 2.2645719613280019e+02  1.2989548433335185e+02 1.2825074557365267e+02 2.1591225880901226e+02  2.0770790470922546e+02 2.2068802439615229e+02 3.1633017903861810e+02  4.4856346393918898e+01 1.6152279244442047e+02 2.3795109750539598e+02  4.7317882227483210e+01 8.8560980725503001e+01 2.0054028732567366e+02  1.0628634641091682e+02 1.7919311932968026e+02 2.8176885368368465e+02  3.1785770392118764e+02 2.5102602597292361e+02 2.9743093136707148e+02  1.9821653865785959e+02 9.0078266085384783e+01 2.1771347805800593e+02  1.8772876051174629e+02 9.7465822970789645e+01 2.1654666672572247e+02  1.7292942755119074e+02 1.0902535836711350e+02 2.1472733089873498e+02  1.7690270890168128e+02 9.7220590748824108e+01 2.3586009831314871e+02  1.5595673948910925e+02 8.3390113739159872e+01 2.4330231527084780e+02  1.7466615750348504e+02 9.7903805970293050e+01 2.1075968634399652e+02  2.5313473367549915e+02 1.4141290360820932e+02 2.0262268987059318e+02  2.1767311475100564e+02 1.3107357430290531e+02 2.0424275118572680e+02  2.1861620529371268e+02 1.3353832037008888e+02 1.6326434526982712e+02  2.1390013577819838e+02 1.3157885150776926e+02 1.7699114749594918e+02  1.9878316066417793e+02 1.3099398664046188e+02 1.8450152778943740e+02  1.4847849471532368e+02 6.7860436024361533e+01 3.0977119304795866e+02  1.8728884182708904e+02 1.2265524554513364e+02 2.2606816935143246e+02  2.2214457426745398e+02 1.2285804612561094e+02 2.8248682509738029e+02  2.1017715865139544e+02 8.0373647716605859e+01 2.2579455430460501e+02  2.2270887129750380e+02 7.6116360041209759e+01 2.2034128446846498e+02  2.0026626057674852e+02 1.0144255263593826e+02 1.9984334720282052e+02  2.2607869966178109e+02 1.0353574403965105e+02 2.1494833088554381e+02  2.5299279955290581e+02 2.2300732776649724e+02 2.7030907379324174e+02  1.8868291519999352e+02 1.6277697113195939e+02 2.0118794881615455e+02  2.3787100554629629e+02 1.2186178578338138e+02 2.2922753271741226e+02  2.4290580275824348e+02 1.5788793810685607e+02 3.2971574141143907e+02  2.3510109484549741e+02 9.7031418504711993e+01 2.4278247559567873e+02  2.1434239110040505e+02 1.1911190247231529e+02 1.9369647158303746e+02  2.0801360459585186e+02 9.8622758349355593e+01 2.0558118475374627e+02  2.7036862280211380e+02 1.3495438848413190e+01 3.8094006501125818e+02  2.9380583376102152e+02 1.2654704056289638e+02 2.5783532355921750e+02  2.5804252169695314e+02 6.4494137931341214e+01 2.6399873939680538e+02  2.3977136503724589e+02 6.1362403918999235e+01 2.5952147656942162e+02  3.0090851328645181e+02 1.3456197079866001e+02 2.6118813621387636e+02  3.1237828610149143e+02 -2.0609601973775423e+01 4.1674319473310635e+02  3.2574231983911028e+02 2.9939730404875469e+01 4.1872542376653286e+02  2.4466747943272685e+02 1.0025936377079228e+02 2.5494999439419186e+02  2.2780567382828812e+02 9.3505287262609627e+01 2.3935291092212157e+02  1.9740289218219411e+02 9.2945872570024619e+01 1.9935793319126370e+02  2.1677769404100457e+02 8.0530024203751310e+01 1.9833385860121570e+02  2.1580176109892167e+02 8.5586637794285537e+01 2.1437571680328494e+02  1.9769379494390981e+02 1.0052972958651776e+02 2.1680523569089303e+02  2.0556052269573186e+02 6.9451292415858347e+01 1.8899949414306383e+02  1.9939207227722108e+02 6.9237092363911515e+01 1.7115361400407807e+02  1.8368970746016748e+02 1.1668656486395638e+02 2.4020133747903165e+02  2.4407232837751923e+02 1.0461392801854143e+02 2.5400673671872036e+02  1.5329979646265633e+02 9.9791698074290267e+01 1.9532794354069770e+02  1.7655088743853253e+02 1.0228327661247428e+02 2.3311677863692887e+02  1.2422233648318455e+02 8.3189749518574587e+01 2.2002252722245109e+02  3.8032583093667603e+02 2.4258375854325942e+02 2.4807388949656013e+02  3.0388850705944162e+02 1.6138543981292815e+02 2.2615074013507839e+02  2.6093078902912447e+02 1.0479971324956631e+02 2.5635039486523567e+02  2.1896333239515661e+02 4.7261026441596663e+01 3.7601919224843169e+02  3.4965444564392652e+02 1.1613318599582843e+02 3.2398772813648179e+02  4.6005807098892495e+02 2.8677210720943185e+02 1.9439589341050879e+02  3.0831388558149496e+02 1.7353152886243603e+02 2.2974362074998280e+02  3.5101019040248656e+02 1.2292975238901197e+02 3.4095011139422701e+02  4.6936661094111071e+02 2.9589117111156992e+02 2.5772241028740342e+02  3.6906478124357011e+02 1.2731468238945182e+02 3.1723494993903097e+02  1.7380108062971078e+02 1.2119907981506920e+02 2.0766079270004280e+02  1.7949948560471464e+02 1.2869263818945097e+02 1.9601624049398603e+02  1.7942211403325854e+02 1.0910444216548846e+02 1.9543042319566476e+02  1.9441031014845748e+02 1.1347079031514792e+02 1.9289102404229180e+02  2.2981521191475949e+02 8.6587165225951267e+01 2.3880744552064067e+02  1.8726069762084691e+02 8.7848410312842248e+01 2.2562106746384038e+02  2.2544554565417297e+02 9.2442500091071295e+01 2.3262559951865984e+02  1.9840776994112599e+02 1.1771650276506200e+02 1.2849943309182169e+02  1.9770817062612636e+02 1.2396316413891164e+02 1.6431741820441181e+02  1.9517079802133307e+02 1.1449495828439868e+02 1.7077882151932610e+02  2.3033420100439787e+02 1.3444021831601341e+02 1.6077160039370298e+02  2.8142019080062954e+02 1.7048756972179933e+02 2.1767173523003413e+02  1.9884010781242367e+02 1.5169946254583428e+02 3.1073245386105930e+02  1.1578134211435363e+02 2.1630917037840791e+02 2.1840878509306020e+02  1.4501388469714797e+02 1.9410326724037779e+02 2.1889261041354490e+02  1.5181996082103356e+02 1.6484941811314059e+02 2.5334916903862748e+02  1.2383315120676652e+02 1.4380622851553733e+02 2.1609862353221362e+02  1.3876363725943210e+02 1.7126157292401135e+02 2.4772044003829143e+02  1.4263085950252736e+02 1.3482491595387222e+02 2.3436483632842797e+02  2.8537511734665321e+02 1.6273159059011624e+02 2.8705055281781051e+02  3.1186522242403134e+02 -9.1293244849135622e+00 4.2616504419683764e+02  2.8353860365628020e+02 1.3076091188292364e+02 3.0252101736333606e+02  2.7354261660558677e+02 1.1027632932560671e+02 3.4449111347679485e+02  2.5004653064732020e+02 1.0428343281543785e+02 3.3115862290778682e+02  3.0382048267213105e+02 -2.8688034121591176e+01 3.4529333212444340e+02  1.7795545635735505e+02 1.0754873389923262e+02 1.9358846221452094e+02  2.0012715430121355e+02 8.3444434045954779e+01 1.8953688275980545e+02  2.4666286808700340e+02 5.7476420347368617e+01 2.6159248786254273e+02  2.5874487683057509e+02 1.2029597587497163e+02 2.8995186915515433e+02  2.8157448346235145e+02 7.8013647244729739e+01 2.8335332548053333e+02  2.3984168145113415e+02 6.8570296810475625e+01 2.4202975619622384e+02  3.0358518855843766e+02 5.9609077171461088e+01 3.2754131980752999e+02  3.4976076880019809e+02 2.9333579523282140e+02 1.8195518550362414e+02  1.1463649120823857e+02 1.8905528810541477e+02 2.6218219350874034e+02  1.5159184536042292e+02 1.5897307193564453e+02 2.0700025379709331e+02  1.5338173928089560e+02 2.0744965013259636e+02 2.5606188343399890e+02  9.6834767023508533e+01 2.3065345864669951e+02 2.6638311078565789e+02  3.8851954381870507e+02 1.8286814199587457e+02 -3.4217284512414828e+01  4.3069571858438348e+02 2.2432210029842449e+02 2.8803221233837672e+02  3.6076343875517472e+02 2.0399355478518143e+02 1.1901525084813115e+02  3.9115257018418038e+02 2.5505650866970200e+02 -2.4352127003504219e+01  4.0462132388414074e+02 2.7928260090916933e+02 5.4448426252429520e+01  2.5302365984502453e+02 1.0050075003240609e+02 2.6746600132683949e+02  1.3529085496330458e+02 2.2738850741055202e+02 2.4408916919972575e+02  2.2063868380073288e+02 1.9848456004556400e+02 2.0509304309003085e+02  1.7476760959963954e+02 1.8456635970825386e+02 2.1474373119401790e+02  1.4456712556342546e+02 2.4519568161757064e+02 2.2653319512587890e+02  1.5980278113846077e+02 1.8277521661312792e+02 2.5717691493023722e+02  1.8656941220114709e+02 1.6225080620651508e+02 3.3683303358761378e+02  1.6099617338066315e+02 2.0031231022138644e+02 3.0700879294560474e+02  1.6653533175423235e+02 2.9851486873062089e+02 1.5800905381852459e+02  1.5709449960976551e+02 2.0431808364478630e+02 1.8937934409398031e+02  1.6892294588188997e+02 1.7046291648333042e+02 2.5489626023746064e+02  2.6237859403526033e+02 1.8945663966522088e+02 3.0604663047511372e+02  1.0071757622653983e+02 7.7653526810232378e+01 2.6987012777163676e+02  2.7662599950624644e+02 1.8554410890844034e+02 1.7222939826042125e+02  4.1967433675242404e+02 1.7439927069248859e+02 5.7414889210023730e+01  1.6188895634081928e+02 1.5595650983655750e+02 2.1885891350557063e+02  1.5998895180708629e+02 1.2613786514656522e+02 2.4289743323569070e+02  1.6210771065255571e+02 1.2651763381557522e+02 2.3494827216513585e+02  1.8610563144668561e+02 1.4669387621204740e+02 2.0806751630583429e+02  1.7452983147137641e+02 1.1789928497161563e+02 2.1282960535125898e+02  1.7885452583736566e+02 1.9212870709644022e+02 2.3829454824079255e+02  2.4090588330246425e+02 1.1645118544410450e+02 2.6585479146550165e+02  1.8201906578894145e+02 1.3325476671206064e+02 2.2714617922004555e+02  2.1013667846576490e+02 1.3248005440352594e+02 3.2291198620717233e+02  1.8112025001899914e+02 9.3412944451224888e+01 1.8050242778950292e+02  1.6263796275697388e+02 1.5736710807482280e+02 2.7496869065752492e+02  1.5703588117935354e+02 1.5373587223826195e+02 2.2315944060320436e+02  1.3982428436002695e+02 2.0337681260152411e+02 2.6106401225151683e+02  2.4029561663403706e+02 1.8178486641123351e+02 2.7233547711478002e+02  3.4002837119652014e+02 2.2928129460671707e+02 2.9114593892541444e+02  1.5749957572314946e+02 9.4636288166111200e+01 2.6281090774110555e+02  1.7557198387076673e+02 1.2363557007348457e+02 2.2457777676463704e+02  9.3222073253975239e+01 2.8326727906643523e-01 4.6226389257073386e-01  8.5509801691475957e+01 2.1664609995296896e+01 -2.4029036443542456e+01  7.3980911621460081e+01 1.8273784918021068e+01 -1.6324368587554602e+01  8.5124539081529804e+01 1.0382316698443114e-01 4.2768336433518228e-01  8.0417744220356965e+01 4.0013659741736418e-01 2.7422483140092666e+00  7.4910522484609970e+01 1.7977367030081066e+01 -1.9542230337713715e+01  6.6494105022998824e+01 1.5454621003124732e+01 -1.1315409753076311e+01  4.6608189033921235e+01 2.8339189118415749e+01 -2.6881083938159509e+01  5.3802660529793457e+01 3.3100051443178792e+01 -4.0513025893713071e+01  6.2129671750152660e+01 3.7121687729135758e+01 -5.5549318477816925e+01  1.9407961302358320e+01 -5.9100381635689359e+01 -1.5945642039366820e+01  7.1545151561721354e+01 -1.7266964644207228e+01 -3.8061212875929442e+01  4.4091557844803717e+01 -3.7358016363006215e+01 -4.3495462558859799e+01  7.1810097499031272e+01 -8.5527015796994146e+00 -3.5746572939250356e+01  4.6250770612941167e+01 -3.9714980589962174e+01 -2.2923596536085256e+01  1.4334058491088373e+02 2.5505110384277749e+01 -2.7936799560687831e+01  7.9339351008057150e+01 2.5563330405621025e+00 -3.2844448760918439e+01  9.1926535388829521e+01 1.8781469650809857e+01 -5.2738283544784359e+01  4.9846914217341478e+01 -1.8683988982847353e+01 -3.4393812917545851e+01  5.5169522301856482e+01 -1.2409963496023979e+01 -4.7749158376962114e+01  1.9918480523009208e+02 1.1572314736092363e+02 -1.0619986722510541e+02  2.4648285473876609e+02 7.6881053847783988e+01 -9.4376692861172785e+01  2.2569255431424790e+02 7.3730742687288298e+01 -1.0275018905011588e+02  2.1683293181553836e+02 8.9260170028167281e+01 -7.8647420879191031e+01  3.0899183712450247e+02 1.1141886826427414e+02 -1.4007505050529073e+02  2.1145024688366971e+02 1.3314500491212564e+02 -1.9979279695684903e+02  1.3234470363293696e+02 1.0647401657580684e+02 -2.2872482177150488e+02  3.2511499466054647e+02 7.9851503408527051e+01 -2.9506111294515546e+02  3.3511929551149342e+02 -1.3114225325832328e+01 -1.9571498157058245e+00  2.0967199104078043e+02 7.7015363527765572e+01 -7.1161379923458171e+01  2.3432781680731850e+01 6.6684823915495485e+01 -2.8941506891718142e+01  4.0664371002707554e+01 5.7221672650450806e+01 -2.4585667303399017e+01  4.1713913056560365e+01 6.6992359974973041e+01 -2.7632097738500924e+01  4.1506607037455275e+01 7.0202641404488062e+01 -3.2238128992010239e+01  3.2795611298217963e+01 5.1285068664250424e+01 -3.6103748436174001e+01  2.3572276026994459e+01 3.6840790847060994e+01 -3.0310411257471269e+01  3.4127395222338315e+01 4.3581404336627443e+01 -3.8118392968954737e+01  4.5937911742178599e+01 6.1352548879349037e+01 -2.3676164504448472e+01  5.2909736774920219e+01 6.1948034655916850e+01 -1.8556894298622002e+01  6.2083657676335505e+01 6.6476802070796907e+01 -2.3847498037497349e+01  5.3765431531796040e+01 -3.6364391607409921e+01 -3.3321024201770200e+01  1.1362287742403392e+02 -6.2584309659418018e+01 -6.1642275580791001e+01  1.2039367494227179e+02 -4.6056392233347879e+01 -9.8868155442485772e+01  1.4039355330026422e+02 -5.2902916023514628e+01 -1.0471401258620739e+02  2.1635023655475982e+02 -4.9670366243971714e+01 -1.5719073304134446e+02  1.8552523549265720e+02 -5.6961072221459887e+01 -1.1951301350725461e+02  1.9001585157091068e+02 -3.0123151960638918e+01 -1.4007876268131491e+02  1.6764673772789314e+02 -1.7182007962720828e+01 -1.3031743358002549e+02  1.5640961135780830e+02 -4.0748632702377208e+01 -1.1027820646092538e+02  1.6932435863498094e+02 -6.9907422240252359e+01 -8.7287574796659470e+01  1.6625406995369056e+02 4.1608654796580517e+01 -2.7924156685132989e+01  6.6952696808135784e+01 4.4577225418958548e+00 -1.0205039513294643e+02  1.3539920921015442e+02 6.7105141074044539e-01 -1.1573555503861651e+02  1.3671869440796843e+02 3.4302109163545524e+01 -4.5982368665428943e+01  1.1788015740125842e+02 5.7606534574472548e+01 -6.4806506131804070e+01  1.3915081971645796e+02 7.6753389933458180e+01 -4.7928907961461505e+01  1.5890855981455982e+02 -9.8580637669941034e+00 -1.7194087247095018e+02  1.1338441378243301e+02 1.3439043525594402e+01 -6.7956960834018645e+01  1.7853077803256275e+02 -1.3476736977973722e+01 -1.3517945448577393e+02  2.9449464116394898e+02 -1.9468478385903431e+01 -8.2375700050702548e+01  3.5317311727718265e-01 -1.3268066477414620e+00 9.8047331380805747e-01  1.9297333410872500e-01 -2.1388521026302598e+00 1.9596584777530797e+00  6.2870178340983596e-01 -2.0909891952443300e+00 1.4119888369966322e+00  6.0921400534050030e-01 -1.4443536173172420e+00 1.0721231234521067e+00  2.5229824348962765e-01 -1.5553167180621883e+00 1.4551798390971225e+00  7.2389713956574697e-01 -1.6900321273501056e+00 1.2627132547188713e+00  6.3075848597320949e-01 -2.3802358042928700e+00 1.7142191824696713e+00  2.8482557273718245e-01 -1.8050139081842600e+00 1.5149872587158988e+00  -8.0819615922240920e-02 -1.4879072953136678e+00 1.6207895440183635e+00  7.5970741796299246e-01 -2.8398166960993696e+00 2.3080573931835566e+00  -9.8504288508422544e-01 -5.7204826007566894e+00 4.1843527717419420e+00  -1.6093105833595109e+00 -5.1875989636884885e+00 5.4436917641119997e+00  6.9722099704565987e-01 -5.1232355194584001e+00 4.7057141328567020e+00  -1.7265029212811700e+00 -7.2700281936283115e+00 5.1624926212590889e+00  -3.1508667767150511e+00 -8.9106122574728968e+00 7.1808278510507604e+00  -2.2316206150730511e+00 -6.0486638659339711e+00 7.2326066181197302e+00  4.9857435803655997e-01 -6.1587363706647249e+00 5.8611519115225343e+00  2.7797292945000969e+00 -4.8295939164129704e+00 4.0076144517175321e+00  8.7227573978992823e-01 -4.8159358381724200e+00 5.6658279349675214e+00  -1.7922619347731534e+00 -4.5537894948262148e+00 6.7483264098358289e+00  6.5442081483551092e+01 5.6762883237865457e-02 -5.6248544830342959e-02  8.2405669714340803e+01 1.8024591814363625e+01 -1.4030535310268400e+01  8.2608272489780518e+01 2.0248490850164661e+01 -1.3478136817177406e+01  6.8026056242797736e+01 1.7453695793969437e+01 -9.0967098982819117e+00  7.8102715288889897e+01 -2.9328242461651222e-01 6.4548702316816564e-01  7.7083295738815167e+01 6.8115490989381661e-02 5.2039341183685939e-01  9.3218212532144989e+01 7.5281424665092156e-01 1.4658984983402817e-01  9.3302101820186465e+01 1.4304863629689838e-02 -5.9451710287390776e-02  7.0016855263845216e+01 3.7694937113728372e+01 -2.7296554427455000e+01  2.4738381075427061e+01 -1.1483172342361421e+01 5.5843730128335540e+00  2.8224656876560299e+01 -7.3529957787999898e+00 4.2668644021994657e+00  2.5498301351737105e+01 -7.3148639137678417e+00 4.3553150250926516e+00  2.3596154241687959e+01 -9.4994288303887355e+00 4.2675860467162972e+00  2.6653040449821031e+01 -9.1828199870426879e+00 7.1254428758711637e+00  2.7793989043383490e+01 -1.2779696990329946e+01 3.2167947979403477e+00  2.7999277202289640e+01 -1.7252520614440769e+01 -2.0131846056450700e-01  2.9480750937304457e+01 -1.6045090572094090e+01 4.1083695865927510e+00  3.0804127744486564e+01 -7.3321527919664797e+00 3.8256076209735324e+00  2.6856101442095117e+01 -2.6628146548571037e+00 2.5740814972174748e+00  1.7615072285362490e+02 4.8773344955900377e+01 -1.7795401663869814e+02  1.5529021953124700e+02 3.7821451525226195e+01 -1.0206415565352835e+02  1.2120689714471436e+02 3.3602648385441867e+01 -1.2484936131661017e+02  1.6871444170269601e+02 3.1301985091320308e+01 -1.2312030500398910e+02  1.7242955225653731e+02 1.8088113489914075e+01 -9.9288118591731404e+01  1.6751576847245201e+02 2.8668156589820128e+01 -8.3491021897609258e+01  1.4452759389163464e+02 2.3952170778046820e+01 -9.1901050386765988e+01  1.1697796978901458e+02 2.1007391485412075e+01 -8.0948223219925168e+01  1.4171377019826011e+02 2.6796069309700354e+01 -7.7793029778892105e+01  1.6132173058690077e+02 3.0673650274697984e+01 -7.2445414573383360e+01  9.9929459280381550e+01 -1.5363418792045601e+02 -2.5944000996783519e+01  2.3144750515619342e+02 -5.8223697445784978e+01 -6.0008946624900226e+01  4.2907341065512134e+02 -1.2930081227910563e+02 -4.7064012436974039e+01  1.2843929549968470e+02 -2.1606077811439724e+02 -7.4794090729935746e+01  9.8082055413996059e+01 -1.1599692403285675e+02 -1.3826080774903284e+02  2.2202609040191282e+02 -7.0072340837878883e+01 -6.5253653997806808e+01  2.0223105546113061e+02 -5.0377539925634544e+01 1.2134770786654585e+01  1.9994566147146614e+02 4.6726402986640593e+01 -4.0824501854276704e+01  3.1320437650231571e+02 -8.6282054100844391e+01 -1.9839025057367559e+02  1.6520332802930281e+02 -2.8757022245899414e+01 -1.0754067296117205e+01  2.3549962271203338e+01 8.1896548751471968e+01 -1.6799829409614770e+02  4.4918898142562973e+01 6.6298734592933428e+01 -1.6022450078193995e+02  6.4883641220239213e+01 6.5886958372211069e+01 -1.4790676477445172e+02  1.7285286420320972e+01 6.4781482173795922e+01 -1.5094906493443980e+02  4.9214524062394986e+01 6.6943693919981257e+01 -1.9726510384589665e+02  1.0472820424049846e+02 5.9952355957230019e+01 -2.2734847649965775e+02  8.9054686208511953e+01 5.9300898206076354e+01 -1.6565087936655891e