<?xml version="1.0"?>
<VTKFile type="UnstructuredGrid"  version="0.1"  >
<UnstructuredGrid>
<Piece  NumberOfPoints="52" NumberOfCells="126">
<Points>
<DataArray  type="Float64"  NumberOfComponents="3"  format="ascii">3.333333333333333 0 3.333333333333333  3.333333333333333 0.8333333333333334 3.333333333333333  3.333333333333333 0.8333333333333334 2.5  2.5 0.8333333333333334 2.5  3.333333333333333 0 2.5  2.5 0 2.5  3.333333333333333 1.666666666666667 3.333333333333333  2.5 0.8333333333333334 3.333333333333333  2.5 0 3.333333333333333  5 0 3.333333333333333  5 0.8333333333333334 3.333333333333333  5 0.8333333333333334 2.5  4.166666666666667 0.8333333333333334 2.5  5 0 2.5  4.166666666666667 0 2.5  5 1.666666666666667 3.333333333333333  4.166666666666667 0.8333333333333334 3.333333333333333  4.166666666666667 0 3.333333333333333  4.166666666666667 1.666666666666667 3.333333333333333  3.333333333333333 0.8333333333333334 4.166666666666667  2.5 0.8333333333333334 4.166666666666667  3.333333333333333 1.666666666666667 4.166666666666667  3.333333333333333 1.666666666666667 5  3.333333333333333 0 4.166666666666667  2.5 0 4.166666666666667  3.333333333333333 0 5  3.333333333333333 0.8333333333333334 5  2.5 0.8333333333333334 5  2.5 0 5  2.5 1.666666666666667 4.166666666666667  4.166666666666667 0.8333333333333334 4.166666666666667  5 0.8333333333333334 4.166666666666667  5 1.666666666666667 4.166666666666667  5 1.666666666666667 5  4.166666666666667 0 4.166666666666667  5 0 4.166666666666667  5 0 5  5 0.8333333333333334 5  4.166666666666667 0.8333333333333334 5  4.166666666666667 0 5  4.166666666666667 1.666666666666667 4.166666666666667  4.166666666666667 1.666666666666667 5  2.5 1.666666666666667 5  3.333333333333333 2.5 4.166666666666667  2.5 2.5 4.166666666666667  3.333333333333333 2.5 5  3.333333333333333 3.333333333333333 5  2.5 2.5 5  4.166666666666667 2.5 4.166666666666667  5 2.5 4.166666666666667  5 2.5 5  4.166666666666667 2.5 5  </DataArray>
</Points>
<Cells>
<DataArray  type="UInt32"  Name="connectivity"  format="ascii">0 3 2 1  0 3 2 4  0 3 5 4  6 3 2 1  0 3 1 7  0 3 8 7  0 3 5 8  6 3 1 7  9 12 11 10  9 12 11 13  9 12 14 13  15 12 11 10  0 12 17 16  0 12 14 17  0 12 4 14  9 12 16 10  9 12 17 16  9 12 14 17  15 12 16 10  0 12 1 16  0 2 12 1  0 2 12 4  6 12 18 16  6 12 1 16  6 2 12 1  15 12 18 16  0 1 19 20  0 1 7 20  0 8 7 20  6 19 21 20  6 1 19 20  6 1 7 20  22 19 21 20  0 19 23 20  0 23 20 24  0 8 20 24  25 19 20 26  25 19 23 20  25 23 20 24  22 19 20 26  25 20 26 27  25 20 27 28  25 20 24 28  22 20 26 27  6 21 20 29  22 21 20 29  0 17 16 30  9 30 10 31  9 16 30 10  9 17 16 30  15 30 31 32  15 30 10 31  15 16 30 10  33 30 31 32  0 17 30 34  9 30 31 35  9 30 34 35  9 17 30 34  36 30 31 37  36 30 31 35  36 30 34 35  33 30 31 37  0 23 30 34  25 30 38 39  25 30 34 39  25 23 30 34  36 30 38 37  36 30 38 39  36 30 34 39  33 30 38 37  0 1 16 30  6 18 30 40  6 18 16 30  6 1 16 30  15 30 40 32  15 18 30 40  15 18 16 30  33 30 40 32  0 19 23 30  25 30 26 38  25 19 30 26  25 19 23 30  22 30 41 38  22 30 26 38  22 19 30 26  33 30 41 38  0 1 19 30  6 30 21 40  6 19 30 21  6 1 19 30  22 30 40 41  22 30 21 40  22 19 30 21  33 30 40 41  22 20 27 42  22 20 29 42  6 44 21 43  6 44 21 29  22 44 43 45  22 44 21 43  22 44 21 29  46 44 43 45  22 44 47 45  22 44 47 42  22 44 29 42  46 44 47 45  6 18 40 48  15 32 48 49  15 40 32 48  15 18 40 48  33 48 49 50  33 32 48 49  33 40 32 48  6 21 40 48  22 41 48 51  22 40 41 48  22 21 40 48  33 48 51 50  33 41 48 51  33 40 41 48  6 21 43 48  22 48 45 51  22 43 48 45  22 21 43 48  46 48 45 51  46 43 48 45  </DataArray>
<DataArray  type="UInt32"  Name="offsets"  format="ascii">4 8 12 16 20 24 28 32 36 40 44 48 52 56 60 64 68 72 76 80 84 88 92 96 100 104 108 112 116 120 124 128 132 136 140 144 148 152 156 160 164 168 172 176 180 184 188 192 196 200 204 208 212 216 220 224 228 232 236 240 244 248 252 256 260 264 268 272 276 280 284 288 292 296 300 304 308 312 316 320 324 328 332 336 340 344 348 352 356 360 364 368 372 376 380 384 388 392 396 400 404 408 412 416 420 424 428 432 436 440 444 448 452 456 460 464 468 472 476 480 484 488 492 496 500 504 </DataArray>
<DataArray  type="UInt8"  Name="types"  format="ascii">10 10 10 10 10 10 10 10 10 10 10 10 10 10 10 10 10 10 10 10 10 10 10 10 10 10 10 10 10 10 10 10 10 10 10 10 10 10 10 10 10 10 10 10 10 10 10 10 10 10 10 10 10 10 10 10 10 10 10 10 10 10 10 10 10 10 10 10 10 10 10 10 10 10 10 10 10 10 10 10 10 10 10 10 10 10 10 10 10 10 10 10 10 10 10 10 10 10 10 10 10 10 10 10 10 10 10 10 10 10 10 10 10 10 10 10 10 10 10 10 10 10 10 10 10 10 </DataArray>
</Cells>
<PointData  Scalars="p"> 
<DataArray  type="Float64"  Name="p"  format="ascii">8.0666666666649345e+00  8.0666666666648563e+00  8.0666666666648119e+00  8.0999999999974950e+00  8.0666666666648599e+00  8.0999999999974932e+00  8.0666666666649238e+00  8.0999999999974968e+00  8.0999999999975483e+00  8.0000000000000000e+00  8.0000000000000000e+00  8.0000000000000000e+00  8.0333333333322621e+00  8.0000000000000000e+00  8.0333333333322798e+00  8.0000000000000000e+00  8.0333333333322710e+00  8.0333333333323420e+00  8.0333333333323278e+00  8.0666666666648066e+00  8.0999999999974719e+00  8.0666666666648403e+00  8.0666666666648972e+00  8.0666666666648421e+00  8.0999999999974754e+00  8.0666666666649096e+00  8.0666666666648439e+00  8.0999999999974737e+00  8.0999999999975127e+00  8.0999999999974737e+00  8.0333333333322461e+00  8.0000000000000018e+00  8.0000000000000000e+00  8.0000000000000000e+00  8.0333333333322692e+00  8.0000000000000000e+00  7.9999999999999991e+00  8.0000000000000000e+00  8.0333333333322674e+00  8.0333333333323171e+00  8.0333333333322710e+00  8.0333333333323171e+00  8.0999999999975216e+00  8.0666666666647888e+00  8.0999999999974719e+00  8.0666666666648368e+00  8.0666666666649167e+00  8.0999999999974861e+00  8.0333333333322567e+00  8.0000000000000000e+00  8.0000000000000000e+00  8.0333333333322638e+00  </DataArray> 
</PointData> 
</Piece>
</UnstructuredGrid>
</VTKFile>