<?xml version="1.0"?>
<VTKFile type="UnstructuredGrid"  version="0.1"  >
<UnstructuredGrid>
<Piece  NumberOfPoints="55" NumberOfCells="126">
<Points>
<DataArray  type="Float64"  NumberOfComponents="3"  format="ascii">1.666666666666667 1.666666666666667 0  2.5 2.5 0.8333333333333334  2.5 2.5 0  2.5 1.666666666666667 0  3.333333333333333 1.666666666666667 0  3.333333333333333 2.5 0.8333333333333334  3.333333333333333 2.5 0  3.333333333333333 3.333333333333333 0  3.333333333333333 3.333333333333333 0.8333333333333334  3.333333333333333 3.333333333333333 1.666666666666667  1.666666666666667 2.5 0  1.666666666666667 3.333333333333333 0  2.5 3.333333333333333 0.8333333333333334  2.5 3.333333333333333 0  4.166666666666667 2.5 0.8333333333333334  4.166666666666667 2.5 0  4.166666666666667 3.333333333333333 0  5 3.333333333333333 0  2.5 4.166666666666667 0.8333333333333334  2.5 4.166666666666667 0  2.5 3.333333333333333 1.666666666666667  2.5 2.5 1.666666666666667  3.333333333333333 3.333333333333333 2.5  2.5 3.333333333333333 2.5  2.5 2.5 2.5  3.333333333333333 3.333333333333333 3.333333333333333  2.5 4.166666666666667 2.5  1.666666666666667 0 0  2.5 0.8333333333333334 0.8333333333333334  2.5 0.8333333333333334 0  1.666666666666667 0.8333333333333334 0  2.5 1.666666666666667 0.8333333333333334  3.333333333333333 1.666666666666667 0.8333333333333334  3.333333333333333 1.666666666666667 1.666666666666667  1.666666666666667 1.666666666666667 1.666666666666667  2.5 1.666666666666667 1.666666666666667  2.5 0.8333333333333334 1.666666666666667  1.666666666666667 1.666666666666667 0.8333333333333334  3.333333333333333 2.5 1.666666666666667  4.166666666666667 2.5 1.666666666666667  4.166666666666667 3.333333333333333 1.666666666666667  5 3.333333333333333 1.666666666666667  2.5 1.666666666666667 2.5  2.5 0.8333333333333334 2.5  3.333333333333333 1.666666666666667 2.5  3.333333333333333 1.666666666666667 3.333333333333333  3.333333333333333 2.5 2.5  3.333333333333333 2.5 3.333333333333333  4.166666666666667 2.5 2.5  3.333333333333333 0.8333333333333334 2.5  4.166666666666667 1.666666666666667 2.5  4.166666666666667 0.8333333333333334 2.5  4.166666666666667 1.666666666666667 3.333333333333333  2.5 2.5 3.333333333333333  2.5 2.5 4.166666666666667  </DataArray>
</Points>
<Cells>
<DataArray  type="UInt32"  Name="connectivity"  format="ascii">0 3 2 1  4 1 6 5  4 2 1 6  4 3 2 1  7 1 5 8  7 1 6 5  7 2 1 6  9 1 5 8  0 2 1 10  11 1 13 12  11 2 1 13  11 2 1 10  7 1 8 12  7 1 13 12  7 2 1 13  9 1 8 12  4 6 15 14  7 15 14 16  7 6 15 14  17 15 14 16  4 6 5 14  7 5 14 8  7 6 5 14  9 5 14 8  11 13 19 18  7 13 19 18  11 13 12 18  7 8 12 18  7 13 12 18  9 8 12 18  9 1 21 20  9 1 12 20  9 12 18 20  9 22 24 23  9 20 24 23  9 21 20 24  25 22 24 23  9 26 22 23  9 20 26 23  25 26 22 23  27 30 29 28  0 3 28 31  0 3 29 28  0 30 29 28  4 28 31 32  4 3 28 31  4 3 29 28  33 28 31 32  34 28 36 35  33 28 36 35  0 37 28 31  34 28 31 35  34 37 28 31  33 28 31 35  0 3 1 31  4 1 5 32  4 1 31 32  4 3 1 31  33 1 5 38  33 1 5 32  33 1 31 32  9 1 5 38  0 1 37 31  34 1 21 35  34 1 31 35  34 1 37 31  33 1 21 38  33 1 21 35  33 1 31 35  9 1 21 38  4 5 14 32  33 14 38 39  33 5 14 38  33 5 14 32  9 14 40 39  9 14 38 39  9 5 14 38  41 14 40 39  34 35 43 42  34 36 35 43  33 44 43 42  33 35 43 42  33 36 35 43  45 44 43 42  34 21 24 35  33 24 38 46  33 21 24 38  33 21 24 35  9 22 24 46  9 24 38 46  9 21 24 38  25 22 24 46  34 24 35 42  33 24 44 46  33 24 44 42  33 24 35 42  45 24 46 47  45 24 44 46  45 24 44 42  25 24 46 47  33 38 39 48  9 40 39 48  9 38 39 48  41 40 39 48  33 44 46 48  45 46 48 47  45 44 46 48  25 46 48 47  33 38 46 48  9 22 46 48  9 38 46 48  25 22 46 48  33 44 43 49  45 44 43 49  33 44 50 51  33 44 49 51  45 50 51 52  45 44 50 51  45 44 49 51  33 44 48 50  45 48 50 52  45 44 48 50  45 24 53 47  25 24 53 47  45 53 54 47  25 53 54 47  </DataArray>
<DataArray  type="UInt32"  Name="offsets"  format="ascii">4 8 12 16 20 24 28 32 36 40 44 48 52 56 60 64 68 72 76 80 84 88 92 96 100 104 108 112 116 120 124 128 132 136 140 144 148 152 156 160 164 168 172 176 180 184 188 192 196 200 204 208 212 216 220 224 228 232 236 240 244 248 252 256 260 264 268 272 276 280 284 288 292 296 300 304 308 312 316 320 324 328 332 336 340 344 348 352 356 360 364 368 372 376 380 384 388 392 396 400 404 408 412 416 420 424 428 432 436 440 444 448 452 456 460 464 468 472 476 480 484 488 492 496 500 504 </DataArray>
<DataArray  type="UInt8"  Name="types"  format="ascii">10 10 10 10 10 10 10 10 10 10 10 10 10 10 10 10 10 10 10 10 10 10 10 10 10 10 10 10 10 10 10 10 10 10 10 10 10 10 10 10 10 10 10 10 10 10 10 10 10 10 10 10 10 10 10 10 10 10 10 10 10 10 10 10 10 10 10 10 10 10 10 10 10 10 10 10 10 10 10 10 10 10 10 10 10 10 10 10 10 10 10 10 10 10 10 10 10 10 10 10 10 10 10 10 10 10 10 10 10 10 10 10 10 10 10 10 10 10 10 10 10 10 10 10 10 10 </DataArray>
</Cells>
<PointData  Scalars="p"> 
<DataArray  type="Float64"  Name="p"  format="ascii">8.1333333333305475e+00  8.0999999999975127e+00  8.0999999999975678e+00  8.0999999999976176e+00  8.0666666666649682e+00  8.0666666666648297e+00  8.0666666666648954e+00  8.0666666666649380e+00  8.0666666666648723e+00  8.0666666666649398e+00  8.1333333333304729e+00  8.1333333333305280e+00  8.0999999999975287e+00  8.0999999999975802e+00  8.0333333333322745e+00  8.0333333333323189e+00  8.0333333333323456e+00  8.0000000000000000e+00  8.0999999999974843e+00  8.0999999999975216e+00  8.0999999999975660e+00  8.0999999999975181e+00  8.0666666666648599e+00  8.0999999999974985e+00  8.0999999999974950e+00  8.0666666666649274e+00  8.0999999999974861e+00  8.1333333333305546e+00  8.0999999999975270e+00  8.0999999999975554e+00  8.1333333333304854e+00  8.0999999999975376e+00  8.0666666666648901e+00  8.0666666666649416e+00  8.1333333333305262e+00  8.0999999999975696e+00  8.0999999999975341e+00  8.1333333333304623e+00  8.0666666666648688e+00  8.0333333333322834e+00  8.0333333333323438e+00  8.0000000000000000e+00  8.0999999999975039e+00  8.0999999999974950e+00  8.0666666666648705e+00  8.0666666666649238e+00  8.0666666666648119e+00  8.0666666666648492e+00  8.0333333333322674e+00  8.0666666666648119e+00  8.0333333333322905e+00  8.0333333333322621e+00  8.0333333333323278e+00  8.0999999999975074e+00  8.0999999999974719e+00  </DataArray> 
</PointData> 
</Piece>
</UnstructuredGrid>
</VTKFile>