<?xml version="1.0"?>
<VTKFile type="UnstructuredGrid"  version="0.1"  >
<UnstructuredGrid>
<Piece  NumberOfPoints="343" NumberOfCells="1296">
<Points>
<DataArray  type="Float64"  NumberOfComponents="3"  format="ascii">0 0 0  1.666666666666667 0 0  3.333333333333333 0 0  5 0 0  0 1.666666666666667 0  1.666666666666667 1.666666666666667 0  3.333333333333333 1.666666666666667 0  5 1.666666666666667 0  0 3.333333333333333 0  1.666666666666667 3.333333333333333 0  3.333333333333333 3.333333333333333 0  5 3.333333333333333 0  0 5 0  1.666666666666667 5 0  3.333333333333333 5 0  5 5 0  0 0 1.666666666666667  1.666666666666667 0 1.666666666666667  3.333333333333333 0 1.666666666666667  5 0 1.666666666666667  0 1.666666666666667 1.666666666666667  1.666666666666667 1.666666666666667 1.666666666666667  3.333333333333333 1.666666666666667 1.666666666666667  5 1.666666666666667 1.666666666666667  0 3.333333333333333 1.666666666666667  1.666666666666667 3.333333333333333 1.666666666666667  3.333333333333333 3.333333333333333 1.666666666666667  5 3.333333333333333 1.666666666666667  0 5 1.666666666666667  1.666666666666667 5 1.666666666666667  3.333333333333333 5 1.666666666666667  5 5 1.666666666666667  0 0 3.333333333333333  1.666666666666667 0 3.333333333333333  3.333333333333333 0 3.333333333333333  5 0 3.333333333333333  0 1.666666666666667 3.333333333333333  1.666666666666667 1.666666666666667 3.333333333333333  3.333333333333333 1.666666666666667 3.333333333333333  5 1.666666666666667 3.333333333333333  0 3.333333333333333 3.333333333333333  1.666666666666667 3.333333333333333 3.333333333333333  3.333333333333333 3.333333333333333 3.333333333333333  5 3.333333333333333 3.333333333333333  0 5 3.333333333333333  1.666666666666667 5 3.333333333333333  3.333333333333333 5 3.333333333333333  5 5 3.333333333333333  0 0 5  1.666666666666667 0 5  3.333333333333333 0 5  5 0 5  0 1.666666666666667 5  1.666666666666667 1.666666666666667 5  3.333333333333333 1.666666666666667 5  5 1.666666666666667 5  0 3.333333333333333 5  1.666666666666667 3.333333333333333 5  3.333333333333333 3.333333333333333 5  5 3.333333333333333 5  0 5 5  1.666666666666667 5 5  3.333333333333333 5 5  5 5 5  0.8333333333333334 0 0  0 0.8333333333333334 0  0.8333333333333334 0.8333333333333334 0  0 0 0.8333333333333334  0.8333333333333334 0 0.8333333333333334  0 0.8333333333333334 0.8333333333333334  0.8333333333333334 0.8333333333333334 0.8333333333333334  2.5 0 0  1.666666666666667 0.8333333333333334 0  2.5 0.8333333333333334 0  1.666666666666667 0 0.8333333333333334  2.5 0 0.8333333333333334  1.666666666666667 0.8333333333333334 0.8333333333333334  2.5 0.8333333333333334 0.8333333333333334  4.166666666666667 0 0  3.333333333333333 0.8333333333333334 0  4.166666666666667 0.8333333333333334 0  3.333333333333333 0 0.8333333333333334  4.166666666666667 0 0.8333333333333334  3.333333333333333 0.8333333333333334 0.8333333333333334  4.166666666666667 0.8333333333333334 0.8333333333333334  5 0.8333333333333334 0  5 0 0.8333333333333334  5 0.8333333333333334 0.8333333333333334  0.8333333333333334 1.666666666666667 0  0 2.5 0  0.8333333333333334 2.5 0  0 1.666666666666667 0.8333333333333334  0.8333333333333334 1.666666666666667 0.8333333333333334  0 2.5 0.8333333333333334  0.8333333333333334 2.5 0.8333333333333334  2.5 1.666666666666667 0  1.666666666666667 2.5 0  2.5 2.5 0  1.666666666666667 1.666666666666667 0.8333333333333334  2.5 1.666666666666667 0.8333333333333334  1.666666666666667 2.5 0.8333333333333334  2.5 2.5 0.8333333333333334  4.166666666666667 1.666666666666667 0  3.333333333333333 2.5 0  4.166666666666667 2.5 0  3.333333333333333 1.666666666666667 0.8333333333333334  4.166666666666667 1.666666666666667 0.8333333333333334  3.333333333333333 2.5 0.8333333333333334  4.166666666666667 2.5 0.8333333333333334  5 2.5 0  5 1.666666666666667 0.8333333333333334  5 2.5 0.8333333333333334  0.8333333333333334 3.333333333333333 0  0 4.166666666666667 0  0.8333333333333334 4.166666666666667 0  0 3.333333333333333 0.8333333333333334  0.8333333333333334 3.333333333333333 0.8333333333333334  0 4.166666666666667 0.8333333333333334  0.8333333333333334 4.166666666666667 0.8333333333333334  2.5 3.333333333333333 0  1.666666666666667 4.166666666666667 0  2.5 4.166666666666667 0  1.666666666666667 3.333333333333333 0.8333333333333334  2.5 3.333333333333333 0.8333333333333334  1.666666666666667 4.166666666666667 0.8333333333333334  2.5 4.166666666666667 0.8333333333333334  4.166666666666667 3.333333333333333 0  3.333333333333333 4.166666666666667 0  4.166666666666667 4.166666666666667 0  3.333333333333333 3.333333333333333 0.8333333333333334  4.166666666666667 3.333333333333333 0.8333333333333334  3.333333333333333 4.166666666666667 0.8333333333333334  4.166666666666667 4.166666666666667 0.8333333333333334  5 4.166666666666667 0  5 3.333333333333333 0.8333333333333334  5 4.166666666666667 0.8333333333333334  0.8333333333333334 5 0  0 5 0.8333333333333334  0.8333333333333334 5 0.8333333333333334  2.5 5 0  1.666666666666667 5 0.8333333333333334  2.5 5 0.8333333333333334  4.166666666666667 5 0  3.333333333333333 5 0.8333333333333334  4.166666666666667 5 0.8333333333333334  5 5 0.8333333333333334  0.8333333333333334 0 1.666666666666667  0 0.8333333333333334 1.666666666666667  0.8333333333333334 0.8333333333333334 1.666666666666667  0 0 2.5  0.8333333333333334 0 2.5  0 0.8333333333333334 2.5  0.8333333333333334 0.8333333333333334 2.5  2.5 0 1.666666666666667  1.666666666666667 0.8333333333333334 1.666666666666667  2.5 0.8333333333333334 1.666666666666667  1.666666666666667 0 2.5  2.5 0 2.5  1.666666666666667 0.8333333333333334 2.5  2.5 0.8333333333333334 2.5  4.166666666666667 0 1.666666666666667  3.333333333333333 0.8333333333333334 1.666666666666667  4.166666666666667 0.8333333333333334 1.666666666666667  3.333333333333333 0 2.5  4.166666666666667 0 2.5  3.333333333333333 0.8333333333333334 2.5  4.166666666666667 0.8333333333333334 2.5  5 0.8333333333333334 1.666666666666667  5 0 2.5  5 0.8333333333333334 2.5  0.8333333333333334 1.666666666666667 1.666666666666667  0 2.5 1.666666666666667  0.8333333333333334 2.5 1.666666666666667  0 1.666666666666667 2.5  0.8333333333333334 1.666666666666667 2.5  0 2.5 2.5  0.8333333333333334 2.5 2.5  2.5 1.666666666666667 1.666666666666667  1.666666666666667 2.5 1.666666666666667  2.5 2.5 1.666666666666667  1.666666666666667 1.666666666666667 2.5  2.5 1.666666666666667 2.5  1.666666666666667 2.5 2.5  2.5 2.5 2.5  4.166666666666667 1.666666666666667 1.666666666666667  3.333333333333333 2.5 1.666666666666667  4.166666666666667 2.5 1.666666666666667  3.333333333333333 1.666666666666667 2.5  4.166666666666667 1.666666666666667 2.5  3.333333333333333 2.5 2.5  4.166666666666667 2.5 2.5  5 2.5 1.666666666666667  5 1.666666666666667 2.5  5 2.5 2.5  0.8333333333333334 3.333333333333333 1.666666666666667  0 4.166666666666667 1.666666666666667  0.8333333333333334 4.166666666666667 1.666666666666667  0 3.333333333333333 2.5  0.8333333333333334 3.333333333333333 2.5  0 4.166666666666667 2.5  0.8333333333333334 4.166666666666667 2.5  2.5 3.333333333333333 1.666666666666667  1.666666666666667 4.166666666666667 1.666666666666667  2.5 4.166666666666667 1.666666666666667  1.666666666666667 3.333333333333333 2.5  2.5 3.333333333333333 2.5  1.666666666666667 4.166666666666667 2.5  2.5 4.166666666666667 2.5  4.166666666666667 3.333333333333333 1.666666666666667  3.333333333333333 4.166666666666667 1.666666666666667  4.166666666666667 4.166666666666667 1.666666666666667  3.333333333333333 3.333333333333333 2.5  4.166666666666667 3.333333333333333 2.5  3.333333333333333 4.166666666666667 2.5  4.166666666666667 4.166666666666667 2.5  5 4.166666666666667 1.666666666666667  5 3.333333333333333 2.5  5 4.166666666666667 2.5  0.8333333333333334 5 1.666666666666667  0 5 2.5  0.8333333333333334 5 2.5  2.5 5 1.666666666666667  1.666666666666667 5 2.5  2.5 5 2.5  4.166666666666667 5 1.666666666666667  3.333333333333333 5 2.5  4.166666666666667 5 2.5  5 5 2.5  0.8333333333333334 0 3.333333333333333  0 0.8333333333333334 3.333333333333333  0.8333333333333334 0.8333333333333334 3.333333333333333  0 0 4.166666666666667  0.8333333333333334 0 4.166666666666667  0 0.8333333333333334 4.166666666666667  0.8333333333333334 0.8333333333333334 4.166666666666667  2.5 0 3.333333333333333  1.666666666666667 0.8333333333333334 3.333333333333333  2.5 0.8333333333333334 3.333333333333333  1.666666666666667 0 4.166666666666667  2.5 0 4.166666666666667  1.666666666666667 0.8333333333333334 4.166666666666667  2.5 0.8333333333333334 4.166666666666667  4.166666666666667 0 3.333333333333333  3.333333333333333 0.8333333333333334 3.333333333333333  4.166666666666667 0.8333333333333334 3.333333333333333  3.333333333333333 0 4.166666666666667  4.166666666666667 0 4.166666666666667  3.333333333333333 0.8333333333333334 4.166666666666667  4.166666666666667 0.8333333333333334 4.166666666666667  5 0.8333333333333334 3.333333333333333  5 0 4.166666666666667  5 0.8333333333333334 4.166666666666667  0.8333333333333334 1.666666666666667 3.333333333333333  0 2.5 3.333333333333333  0.8333333333333334 2.5 3.333333333333333  0 1.666666666666667 4.166666666666667  0.8333333333333334 1.666666666666667 4.166666666666667  0 2.5 4.166666666666667  0.8333333333333334 2.5 4.166666666666667  2.5 1.666666666666667 3.333333333333333  1.666666666666667 2.5 3.333333333333333  2.5 2.5 3.333333333333333  1.666666666666667 1.666666666666667 4.166666666666667  2.5 1.666666666666667 4.166666666666667  1.666666666666667 2.5 4.166666666666667  2.5 2.5 4.166666666666667  4.166666666666667 1.666666666666667 3.333333333333333  3.333333333333333 2.5 3.333333333333333  4.166666666666667 2.5 3.333333333333333  3.333333333333333 1.666666666666667 4.166666666666667  4.166666666666667 1.666666666666667 4.166666666666667  3.333333333333333 2.5 4.166666666666667  4.166666666666667 2.5 4.166666666666667  5 2.5 3.333333333333333  5 1.66666666
[...]
<PointData  Vectors="u"> 
<DataArray  type="Float64"  Name="u"  NumberOfComponents="3" format="ascii">2.0000000000105308e+02 9.3807064422887010e-10 9.8530370936072637e-10  1.9999999999809248e+02 9.9650424819087673e-10 1.0200838890718242e-09  1.9999999999582590e+02 9.4167520752218085e-10 8.8226310398631538e-10  1.9999999999371374e+02 4.1098762272037110e-10 4.7097591536638483e-10  2.0000000000099604e+02 3.8236142744353646e-10 9.7272063764591913e-10  1.9999999999810100e+02 2.9616869555429166e-10 9.6697764490984647e-10  1.9999999999579217e+02 2.5697998695985972e-10 9.2526457749532947e-10  1.9999999999357956e+02 9.1060855746846320e-11 4.3912806169545505e-10  2.0000000000096875e+02 1.9338054837975807e-10 9.3952393395798045e-10  1.9999999999806505e+02 1.7560187164336003e-10 8.8166232887547512e-10  1.9999999999573953e+02 1.3116685316233209e-10 8.9078000838210187e-10  1.9999999999352951e+02 1.3453296098360233e-11 5.0511962985132847e-10  2.0000000000095110e+02 -5.9346242350037995e-10 9.3320333564390646e-10  1.9999999999804973e+02 -5.1504632492691524e-10 9.2444311504612637e-10  1.9999999999579120e+02 -5.9018424714508107e-10 9.7160701940824831e-10  1.9999999999342060e+02 -1.8942119996493997e-10 5.1035306180230236e-10  2.0000000000103256e+02 1.0550033184779753e-09 3.2343109432126688e-10  1.9999999999802932e+02 9.3830775819726800e-10 2.7077633421396979e-10  1.9999999999580959e+02 8.6981046216947616e-10 1.8788557825586488e-10  1.9999999999358053e+02 3.8010328531432363e-10 8.2528240944419212e-11  2.0000000000096676e+02 2.8896080280694223e-10 2.7411447509372667e-10  1.9999999999804592e+02 2.5784406002001369e-10 2.3091067726562983e-10  1.9999999999574851e+02 2.1459500017264515e-10 1.4832688602925533e-10  1.9999999999363158e+02 3.5692808242879693e-11 7.9095427506903369e-11  2.0000000000095216e+02 1.8657759212951275e-10 2.3124838014187494e-10  1.9999999999797524e+02 1.1794270119945326e-10 1.7629497666626508e-10  1.9999999999571477e+02 7.9688923870531859e-11 1.8095441100764509e-10  1.9999999999344908e+02 5.8933886170404755e-11 7.5417393805423873e-11  2.0000000000089204e+02 -5.9410658697937012e-10 1.8810235312046682e-10  1.9999999999801031e+02 -4.9859493792966093e-10 2.0697588443320169e-10  1.9999999999572930e+02 -4.6250971128050308e-10 1.3441998501269717e-10  1.9999999999334793e+02 -2.0772499468017967e-10 3.7075202906068581e-11  2.0000000000095918e+02 9.7178554132711782e-10 1.4092439585408316e-10  1.9999999999805874e+02 9.3393099724571935e-10 6.6911296732634815e-11  1.9999999999581800e+02 8.6167810340870634e-10 9.8869064760952713e-11  1.9999999999350322e+02 4.0572820906787523e-10 2.6058738287591580e-11  2.0000000000091725e+02 2.6348247165731555e-10 1.1791084311480410e-10  1.9999999999803697e+02 2.2842966461762792e-10 6.4013797818317445e-11  1.9999999999579634e+02 1.8943048121709546e-10 5.9860451853281892e-11  1.9999999999350086e+02 8.2124551000904593e-11 1.7620994309711580e-11  2.0000000000095812e+02 1.9191612941762747e-10 1.1770591653379391e-10  1.9999999999802478e+02 9.3973303765493618e-11 1.2714113568898763e-10  1.9999999999572148e+02 1.6454168392014993e-10 1.1603476999087131e-10  1.9999999999346954e+02 1.9222204655675144e-11 4.9995370224842487e-12  2.0000000000087769e+02 -5.6754804327558262e-10 5.7360577515944246e-11  1.9999999999796057e+02 -6.2755505098958525e-10 7.1780701075500646e-11  1.9999999999570434e+02 -5.7054999983663261e-10 4.3842931298936210e-11  1.9999999999341449e+02 -1.8117693107578281e-10 -3.5634001721974657e-12  2.0000000000092922e+02 9.1547604757507775e-10 -5.6630079685004489e-10  1.9999999999798871e+02 9.3287580600349459e-10 -5.4837914069104728e-10  1.9999999999583162e+02 8.9146245058349020e-10 -4.7715025510941919e-10  1.9999999999344527e+02 4.6805248707539601e-10 -2.3107200722987529e-10  2.0000000000095929e+02 1.9241540611323998e-10 -6.3442483282078161e-10  1.9999999999795986e+02 1.9113826332151857e-10 -6.0577158129884352e-10  1.9999999999577884e+02 1.8833719384185053e-10 -5.8934706002041003e-10  1.9999999999329765e+02 8.1848355374644608e-11 -2.0897499071145184e-10  2.0000000000089884e+02 6.5673058042247874e-11 -6.6090591267643916e-10  1.9999999999798740e+02 8.7869081526147637e-11 -5.8401730857858238e-10  1.9999999999568769e+02 6.2283067056957004e-11 -5.3762987889787429e-10  1.9999999999341955e+02 -9.3185425147454721e-12 -1.7982819324268698e-10  2.0000000000092257e+02 -6.0906762399868992e-10 -5.9518010774555272e-10  1.9999999999794304e+02 -6.5249884327119458e-10 -5.9392164153893129e-10  1.9999999999570494e+02 -6.1019657466912658e-10 -5.6223269469895976e-10  1.9999999999340528e+02 -1.9253887103606359e-10 -2.1912558694641810e-10  1.9999999999871312e+02 -4.4971812456772624e-11 1.6310212653352632e-11  1.9999999999990968e+02 -1.4240250950530423e-10 -1.3249139404934935e-10  1.9999999999860151e+02 -3.6338233731273025e-10 -5.9096094222941775e-10  2.0000000000006446e+02 -6.9602698405142082e-11 -1.5016817531102983e-10  1.9999999999851167e+02 -6.2741952594005783e-10 -3.4711023585934917e-10  1.9999999999938217e+02 -3.6367047779798401e-10 -2.8565659356364662e-10  1.9999999999873000e+02 -2.1249142245290531e-10 -1.2349047440129867e-10  1.9999999999677613e+02 -4.5476586522382076e-13 -5.2943750990745420e-11  1.9999999999776804e+02 -9.3238517082145894e-11 -4.6179394429174210e-11  1.9999999999653645e+02 -3.4963625856464123e-10 -6.6928745269918669e-10  1.9999999999776179e+02 -8.9789934258653104e-11 -9.2809675187894387e-11  1.9999999999645530e+02 -6.3859911306770612e-10 -3.8277237885156877e-10  1.9999999999760254e+02 -2.4253856469460382e-10 -2.2644428975091705e-10  1.9999999999670214e+02 -1.5584424607272640e-10 -1.6440619848820109e-10  1.9999999999461249e+02 -3.2169614475424507e-11 -5.4940326200345549e-11  1.9999999999553617e+02 -1.3153618806416858e-10 -6.9037979253623248e-11  1.9999999999444910e+02 -2.8525641326927725e-10 -5.9269806144239141e-10  1.9999999999554348e+02 -3.1016594315418829e-11 -1.7041133941656993e-10  1.9999999999453692e+02 -7.5837489434684436e-10 -2.9722230087186340e-10  1.9999999999545284e+02 -2.3085719997710964e-10 -2.8873298671195006e-10  1.9999999999461298e+02 -1.5271905800877548e-10 -1.5811556302000518e-10  1.9999999999338885e+02 -2.6094042363210904e-11 -1.9311474470421095e-10  1.9999999999328742e+02 -2.1452740254655568e-10 -5.1380579671959976e-11  1.9999999999324456e+02 -4.6019284296428852e-11 -2.4584835658041160e-11  1.9999999999873796e+02 -1.2313628707388608e-12 1.1335319583254552e-11  2.0000000000001432e+02 -1.4458960334144150e-11 -4.1255611150989369e-11  1.9999999999851724e+02 -1.8614536370884699e-10 -5.5810625909211059e-10  1.9999999999997598e+02 2.6804059503455426e-11 -1.2409966248203654e-10  1.9999999999865508e+02 -4.9658438594204136e-11 -2.3897431137865368e-10  1.9999999999934485e+02 -2.8325323361499909e-10 -3.4408840637344529e-10  1.9999999999870812e+02 4.6673688135096994e-12 -1.4822715599342697e-10  1.9999999999673625e+02 -1.3673280868788127e-11 -1.8950679518978233e-12  1.9999999999775275e+02 -1.2188822906738941e-12 2.9320942663548567e-11  1.9999999999646752e+02 -2.2460611561293065e-10 -7.2039686786638121e-10  1.9999999999789156e+02 1.2474008911756045e-10 -9.2120292867961100e-12  1.9999999999656455e+02 -1.6346932393644710e-10 -2.2460853803883180e-10  1.9999999999761832e+02 -1.3328198144062198e-10 -2.0964474056619795e-10  1.9999999999662782e+02 -7.8693406273979890e-11 -1.5613761628555770e-10  1.9999999999467124e+02 -7.3496463744931471e-11 6.2629132359814284e-11  1.9999999999559350e+02 -7.3751078760981832e-11 9.1552814987678950e-11  1.9999999999441749e+02 -2.3661291379570276e-10 -5.9865344340865829e-10  1.9999999999563698e+02 7.0435754633678791e-11 -1.1535383134928416e-10  1.9999999999452356e+02 -2.5389128616289184e-10 -2.5892670669624630e-10  1.9999999999543857e+02 -1.3708006027708039e-10 -2.9365495339351983e-10  1.9999999999449491e+02 -8.9884951350542328e-11 -2.5703034767095775e-10  1.9999999999318649e+02 3.2460109721022930e-11 -1.4443264210233943e-10  1.9999999999334295e+02 3.7796044254114633e-11 -7.1110406157699492e-11  1.9999999999312936e+02 5.0485330682336451e-12 -8.4037747767012180e-11  1.9999999999880191e+02 -1.3951798786858101e-10 2.9815854592017847e-11  2.0000000000006222e+02 -1.8578519991013601e-11 -1.0653856924355776e-11  1.9999999999846403e+02 -1.2855582675603080e-10 -7.3762642631334616e-10  2.0000000000007503e+02 -4.2954239174716238e-11 -1.5776556930365830e-10  1.9999999999867882e+02 -2.6195219891205999e-10 -2.2113507073937884e-10  1.9999999999925737e+02 -1.3528742286997822e-10 -3.0217869854000573e-10  1.9999999999866048e+02 -8.6963323608444078e-12 -1.7927009782163443e-10  1.9999999999665096e+02 -4.0237915591805161e-11 -2.4515014298919460e-11  1.9999999999783793e+02 -9.4949628620400993e-11 -2.6438328881156462e-12  1.9999999999641685e+02 -1.6725319098995503e-10 -6.4574226631191604e-10  1.9999999999783000e+02 1.7010352449781634e-11 -4.1689478571830736e-11  1.9999999999654298e+02 -1.3571302557661881e-10 -2.3212356498260587e-10  1.9999999999757853e+02 -8.3727011745035999e-11 -1.7016169970058997e-10  1.9999999999661011e+02 -1.5169840660915050e-11 -1.9967994673139965e-10  1.9999999999456955e+02 -1.5091278469918636e-10 6.6700513027114688e-11  1.9999999999559557e+02 3.3287779922836547e-11 7.2401557768850993e-11  1.9999999999431373e+02 -7.1953776692767165e-11 -6.8867459827042477e-10  1.9999999999561865e+02 -2.2256585322752494e-12 -8.9210159700015322e-11  1.9999999999450228e+02 -2.3105378756888772e-10 -1.8885582645794951e-10  1.9999999999539233e+02 1.5528851403493962e-11 -2.7441934694952573e-10  1.9999999999445495e+02 1.0424414022013095e-11 -1.8266331470343489e-10  1.9999999999319860e+02 -3.6821100026539900e-11 -1.2008237653749520e-10  1.9999999999318138e+02 -6.4552686041034503e-11 -6.9320870613538573e-11  1.9999999999294420e+02 3.9243989264248127e-11 -2.6579832952524865e-11  1.9999999999876232e+02 -4.1851048875283738e-11 -7.8295344869469040e-12  2.0000000000004465e+02 -2.2401109236543953e-11 -1.2078784874279041e-10  1.9999999999870758e+02 2.9999105752570704e-10 -1.3459709412999880e-10  1.9999999999675748e+02 -1.2882484398008173e-10 1.4557284537003245e-10  1.9999999999799499e+02 1.8016381256834421e-11 -6.2741665350370720e-11  1.9999999999666534e+02 1.8446651726527427e-10 -1.3198349812334445e-10  1.9999999999444748e+02 -1.3060548729747132e-11 9.5624901223260397e-11  1.9999999999575317e+02 -7.2461057788632352e-11 -1.3794918681683794e-10  1.9999999999460070e+02 2.0053779508570986e-10 -1.1083398393839778e-10  1.9999999999301843e+02 9.2770796206109576e-11 -3.0587022844911411e-11  1.9999999999883869e+02 5.5387143374033464e-11 -6.7757419458510695e-11  2.0000000000003286e+02 -1.0188689860214532e-10 -2.1761615426769425e-11  1.9999999999862888e+02 -2.6092001101498960e-10 -2.1774053118330017e-10  1.9999999999998360e+02 -1.3093062799020871e-11 -6.6238068522216522e-11  1.9999999999851033e+02 -6.3020345118424648e-10 -2.6302948648556396e-10  1.9999999999940272e+02 -3.6801339274802222e-10 -2.8244860941875027e-10  1.9999999999869533e+02 -1.5219240820548248e-10 -2.7288642592561968e-11  1.9999999999660994e+02 -8.5655135884288252e-11 -8.7690392693060569e-11  1.9999999999788366e+02 -6.1161576268661727e-11 9.7742473267523150e-11  1.9999999999652059e+02 -1.3040268128028457e-10 -2.9716097545183514e-10  1.9999999999775599e+02 1.5785972790197150e-11 -7.9125275437869358e-11  1.9999999999642844e+02 -7.2399654315798282e-10 -1.9091029402789513e-10  1.9999999999756704e+02 -2.3509607531023283e-10 -1.6604410917244432e-10  1.9999999999658351e+02 -1.5630646019041992e-10 -9.6225520051272686e-11  1.9999999999478496e+02 1.5098540246347042e-10 -1.3951693245125676e-10  1.9999999999567311e+02 -2.8020687459239299e-11 2.4098512333888650e-11  1.9999999999453320e+02 -2.3329647492992170e-10 -3.2082551356759547e-10  1.9999999999557164e+02 -6.0326014411456930e-11 8.3639797486835108e-11  1.9999999999445751e+02 -6.0426985583438897e-10 -1.9728437907314302e-10  1.9999999999546114e+02 -2.2798130462123125e-10 -1.4937856003642159e-10  1.9999999999455105e+02 -1.9033156637794817e-10 -8.5733754202106726e-11  1.9999999999339022e+02 -4.0979485952358155e-11 -4.5249123100279458e-11  1.9999999999329839e+02 -1.5984904808708365e-10 -1.9271185005445657e-11  1.9999999999319380e+02 -2.7690776018258696e-11 2.1363849098989740e-12  1.9999999999885102e+02 7.0422472377013213e-11 1.1386407994962082e-10  2.0000000000002836e+02 -8.1050416448856287e-11 -9.0157377552203411e-11  1.9999999999872435e+02 -7.1940067733720880e-11 -2.6674268753951988e-10  2.0000000000004192e+02 -7.8832009932686728e-11 3.9284902751387848e-11  1.9999999999868552e+02 -2.4650581517781837e-10 -1.7934657852562428e-10  1.9999999999927476e+02 -2.8258172095719084e-10 -2.7451958299739146e-10  1.9999999999874640e+02 -9.3158840880730560e-11 -1.3464910161082042e-10  1.9999999999658706e+02 4.3351622515173582e-11 3.0558230769747624e-12  1.9999999999777827e+02 2.7163391700890356e-11 6.6598852686240879e-11  1.9999999999659477e+02 -1.2550822089247308e-10 -3.6827909573837388e-10  1.9999999999779922e+02 9.4127389691109881e-11 -3.6866635574716909e-11  1.9999999999652337e+02 -1.9086568917313458e-10 -1.6351916370067077e-10  1.9999999999754542e+02 -1.8885086328228434e-10 -2.1795598292423817e-10  1.9999999999655944e+02 -1.0839758227552683e-10 -1.0596335161104362e-10  1.9999999999453954e+02 -3.1220835155962679e-12 -2.6844909507106821e-11  1.9999999999558935e+02 3.0685480945369517e-11 1.6093906786560218e-11  1.9999999999442272e+02 -7.8239848151572868e-11 -1.8162890156537922e-10  1.9999999999562513e+02 6.4273160027599453e-11 3.1438854655700155e-12  1.9999999999453544e+02 -1.8795571842480174e-10 -6.2696103523520212e-11  1.9999999999544835e+02 -1.2149676905083173e-10 -2.2131722750392151e-10  1.9999999999447016e+02 -1.2405532914731293e-10 -1.5559974894892929e-10  1.9999999999336504e+02 1.3146658351596137e-11 2.5895279431304871e-11  1.9999999999325752e+02 8.1335233868027697e-12 -1.4197832056686895e-11  1.9999999999299894e+02 1.5515914267541280e-11 3.4232319604191262e-11  1.9999999999894345e+02 -6.1722457407519949e-11 -2.1098997053559947e-11  2.0000000000004746e+02 4.1245958038897114e-12 -1.1723373382651049e-10  1.9999999999864073e+02 -1.2705973693850957e-11 -2.3787895147472297e-10  1.9999999999994154e+02 -7.3006864689822943e-11 -1.0726297625161071e-10  1.9999999999862041e+02 -2.5430871264070893e-10 -2.1668095256473877e-10  1.9999999999922284e+02 -1.5222883909859324e-10 -2.7379394336713414e-10  1.9999999999866151e+02 6.2548769559750277e-11 -1.6073367677040343e-10  1.9999999999668648e+02 3.0337106214026126e-11 1.7509666464829716e-11  1.9999999999792442e+02 -4.8804362130384079e-11 3.6911304091228171e-12  1.9999999999648281e+02 -1.9437161982194972e-11 -3.1094259311025822e-10  1.9999999999789387e+02 -2.8003489297942781e-11 -1.5387048543580351e-10  1.9999999999658567e+02 -1.7521064600887731e-10 -2.1652002449530027e-10  1.9999999999757082e+02 1.6030398300380299e-11 -2.2164566837186058e-10  1.9999999999658758e+02 -3.6299243212323779e-11 -1.5391059005146297e-10  1.9999999999455233e+02 -6.1173369203630425e-12 -1.3096755754401750e-11  1.9999999999564042e+02 6.0185802899230830e-11 -2.8391792444284305e-11  1.9999999999449676e+02 -9.0807681486753737e-12 -3.5838001426939202e-10  1.9999999999557824e+02 4.3500502857895636e-11 -1.0960556063724245e-10  1.9999999999445973e+02 -2.6431930302797953e-10 -1.3542176426959186e-10  1.9999999999542521e+02 -4.7039964665672141e-12 -7.0226455763018192e-11  1.9999999999436341e+02 -4.6407424712445069e-11 -1.6910927954637167e-10  1.9999999999307340e+02 -1.5128181024268743e-11 1.1279368805838993e-11  1.9999999999320701e+02 -1.1753767939306755e-12 -1.9826421427596748e-11  1.9999999999296662e+02 2.8231196128430057e-11 8.5486913259167830e-12  1.9999999999884463e+02 -6.4703510468462447e-11 1.6406046744237978e-10  2.0000000000013466e+02 -5.1058241366013180e-11 -3.0775369870697704e-11  1.9999999999876894e+02 1.9296182963733603e-10 -9.0208030680232589e-11  1.9999999999661821e+02 -4.1960595023608217e-11 1.2529899585560669e-10  1.9999999999792476e+02 -2.6739538006880124e-11 -1.7244735324493676e-10  1.9999999999668256e+02 2.4726318261574050e-10 -8.0263873486884773e-11  1.9999999999452174e+02 6.3875900029098193e-12 3.1707310012214709e-11  1.9999999999573430e+02 -8.7512031251082461e-11 -1.7191162017147328e-11  1.9999999999455764e+02 2.3833404584848172e-10 -4.7089757059772786e-11  1.9999999999308343e+02 6.1568406697042727e-11 -3.2468370274311091e-12  1.9999999999878870e+02 8.4311425997229953e-11 -1.3018302922569064e-10  2.0000000000008910e+02 -8.8370553221251896e-11 -1.2639362637199129e-10  1.9999999999859480e+02 -2.4229629265299497e-10 -2.5899645631476911e-10  2.0000000000006798e+02 -5.1076755710408004e-11 4.6287190128921639e-11  1.9999999999843240e+02 -7.4168556831463249e-10 -9.0016700510809514e-11  1.9999999999919481e+02 -3.3186684758490950e-10 -8.4578657109594284e-11  1.9999999999866296e+02 -1.6005141454367599e-10 7.5207914080161494e-11  1.9999999999664445e+02 -6.1354004733819863e-11 -1.5910449014808515e-10  1.9999999999784916e+02 -8.3287653439304469e-11 -4.5761245265670742e-11  1.9999999999651951e+02 -2.7749438034876490e-10 -1.4309005004639380e-10  1.9999999999773729e+02 3.7905702046441327e-11 2.3636678804114901e-11  1.9999999999648205e+02 -8.0303187936679114e-10 -1.4789298445270047e-10  1.9999999999754849e+02 -1.5702737510197430e-10 -3.1118433292644053e-11  1.9999999999661887e+02 -1.5832022315712235e-10 -6.7316628633784945e-12  1.9999999999464868e+02 -9.2695420174354712e-11 -8.6421237138254884e-11  1.9999999999570417e+02 -1.0188887468263613e-10 4.1098284615249261e-12  1.9999999999449059e+02 -1.7225313915616716e-10 -2.2154406180934689e-10  1.9999999999562749e+02 5.0872336652613058e-12 1.7688787825711936e-12  1.9999999999442454e+02 -6.3777282583148984e-10 -1.4442070052869142e-10  1.9999999999540137e+02 -2.4074207555390752e-10 1.5717759543070778e-11  1.9999999999451751e+02 -1.7534129224606489e-10 -2.0284013310705326e-11  1.9999999999331010e+02 -3.8947668579518385e-11 6.1983718265364280e-13  1.9999999999314619e+02 -1.2071007141779177e-10 3.3258254842854978e-11  1.9999999999299638e+02 -5.5132142604026105e-11 2.8974363643639293e-11  1.9999999999875300e+02 -1.4417906446288073e-11 -7.2257441321205768e-11  1.9999999999993108e+02 -1.8809303555936933e-10 -1.2055859034524378e-10  1.9999999999864889e+02 -1.7362549673826902e-10 -2.8059483962039049e-10  1.9999999999990851e+02 -7.3849842251010072e-11 2.0479335966807153e-11  1.9999999999867896e+02 -2.6971608300337166e-10 6.6681758765734253e-11  1.9999999999932487e+02 -2.8545260507126818e-10 -9.9200604003498538e-11  1.9999999999869445e+02 -1.2302681321062689e-10 6.3702369332132184e-11  1.9999999999658866e+02 7.9565487092036809e-11 -3.0618436516445267e-11  1.9999999999791689e+02 -6.7584557942218339e-12 -4.1129078697267350e-11  1.9999999999651340e+02 -1.7437911259609161e-10 -2.1004997246383636e-10  1.9999999999784430e+02 6.4535488756584221e-11 4.5736367990581695e-11  1.9999999999651263e+02 -2.4435397772981241e-10 4.4827458243028536e-12  1.9999999999753194e+02 -1.6789545742466053e-10 -2.4009464402597577e-11  1.9999999999658934e+02 -9.0055306574855023e-11 -1.5855676395190128e-11  1.9999999999452979e+02 -4.3482507549889716e-11 -4.8669189677370231e-11  1.9999999999559245e+02 -2.3469743771431629e-11 9.1468483083784351e-12  1.9999999999449213e+02 -1.1420588903639700e-10 -2.3198919671456180e-10  1.9999999999564747e+02 4.1408154609738362e-11 1.3542598728729289e-10  1.9999999999452763e+02 -3.7506043939353102e-10 5.0545282277293165e-11  1.9999999999535515e+02 -6.5488521310153753e-11 6.7566975531712367e-11  1.9999999999441874e+02 -1.3661995132621340e-10 -3.6157992894400138e-11  1.9999999999323066e+02 -2.3547541150240725e-11 -1.7657731022351519e-12  1.9999999999312851e+02 4.1333138130820071e-11 1.2249564969379338e-11  1.9999999999294536e+02 -2.1995475074666011e-11 2.2965606945758723e-11  1.9999999999879532e+02 3.1826444086551853e-11 -4.7456523617319359e-11  1.9999999999991005e+02 -4.8631792811667945e-12 -1.1916830677122785e-10  1.9999999999868416e+02 -1.6996441272638866e-11 -2.6070812081623993e-10  1.