<?xml version="1.0"?>
<VTKFile type="UnstructuredGrid"  version="0.1"  >
<UnstructuredGrid>
<Piece  NumberOfPoints="55" NumberOfCells="126">
<Points>
<DataArray  type="Float64"  NumberOfComponents="3"  format="ascii">1.666666666666667 1.666666666666667 0  2.5 2.5 0.8333333333333334  2.5 2.5 0  2.5 1.666666666666667 0  3.333333333333333 1.666666666666667 0  3.333333333333333 2.5 0.8333333333333334  3.333333333333333 2.5 0  3.333333333333333 3.333333333333333 0  3.333333333333333 3.333333333333333 0.8333333333333334  3.333333333333333 3.333333333333333 1.666666666666667  1.666666666666667 2.5 0  1.666666666666667 3.333333333333333 0  2.5 3.333333333333333 0.8333333333333334  2.5 3.333333333333333 0  4.166666666666667 2.5 0.8333333333333334  4.166666666666667 2.5 0  4.166666666666667 3.333333333333333 0  5 3.333333333333333 0  2.5 4.166666666666667 0.8333333333333334  2.5 4.166666666666667 0  2.5 3.333333333333333 1.666666666666667  2.5 2.5 1.666666666666667  3.333333333333333 3.333333333333333 2.5  2.5 3.333333333333333 2.5  2.5 2.5 2.5  3.333333333333333 3.333333333333333 3.333333333333333  2.5 4.166666666666667 2.5  1.666666666666667 0 0  2.5 0.8333333333333334 0.8333333333333334  2.5 0.8333333333333334 0  1.666666666666667 0.8333333333333334 0  2.5 1.666666666666667 0.8333333333333334  3.333333333333333 1.666666666666667 0.8333333333333334  3.333333333333333 1.666666666666667 1.666666666666667  1.666666666666667 1.666666666666667 1.666666666666667  2.5 1.666666666666667 1.666666666666667  2.5 0.8333333333333334 1.666666666666667  1.666666666666667 1.666666666666667 0.8333333333333334  3.333333333333333 2.5 1.666666666666667  4.166666666666667 2.5 1.666666666666667  4.166666666666667 3.333333333333333 1.666666666666667  5 3.333333333333333 1.666666666666667  2.5 1.666666666666667 2.5  2.5 0.8333333333333334 2.5  3.333333333333333 1.666666666666667 2.5  3.333333333333333 1.666666666666667 3.333333333333333  3.333333333333333 2.5 2.5  3.333333333333333 2.5 3.333333333333333  4.166666666666667 2.5 2.5  3.333333333333333 0.8333333333333334 2.5  4.166666666666667 1.666666666666667 2.5  4.166666666666667 0.8333333333333334 2.5  4.166666666666667 1.666666666666667 3.333333333333333  2.5 2.5 3.333333333333333  2.5 2.5 4.166666666666667  </DataArray>
</Points>
<Cells>
<DataArray  type="UInt32"  Name="connectivity"  format="ascii">0 3 2 1  4 1 6 5  4 2 1 6  4 3 2 1  7 1 5 8  7 1 6 5  7 2 1 6  9 1 5 8  0 2 1 10  11 1 13 12  11 2 1 13  11 2 1 10  7 1 8 12  7 1 13 12  7 2 1 13  9 1 8 12  4 6 15 14  7 15 14 16  7 6 15 14  17 15 14 16  4 6 5 14  7 5 14 8  7 6 5 14  9 5 14 8  11 13 19 18  7 13 19 18  11 13 12 18  7 8 12 18  7 13 12 18  9 8 12 18  9 1 21 20  9 1 12 20  9 12 18 20  9 22 24 23  9 20 24 23  9 21 20 24  25 22 24 23  9 26 22 23  9 20 26 23  25 26 22 23  27 30 29 28  0 3 28 31  0 3 29 28  0 30 29 28  4 28 31 32  4 3 28 31  4 3 29 28  33 28 31 32  34 28 36 35  33 28 36 35  0 37 28 31  34 28 31 35  34 37 28 31  33 28 31 35  0 3 1 31  4 1 5 32  4 1 31 32  4 3 1 31  33 1 5 38  33 1 5 32  33 1 31 32  9 1 5 38  0 1 37 31  34 1 21 35  34 1 31 35  34 1 37 31  33 1 21 38  33 1 21 35  33 1 31 35  9 1 21 38  4 5 14 32  33 14 38 39  33 5 14 38  33 5 14 32  9 14 40 39  9 14 38 39  9 5 14 38  41 14 40 39  34 35 43 42  34 36 35 43  33 44 43 42  33 35 43 42  33 36 35 43  45 44 43 42  34 21 24 35  33 24 38 46  33 21 24 38  33 21 24 35  9 22 24 46  9 24 38 46  9 21 24 38  25 22 24 46  34 24 35 42  33 24 44 46  33 24 44 42  33 24 35 42  45 24 46 47  45 24 44 46  45 24 44 42  25 24 46 47  33 38 39 48  9 40 39 48  9 38 39 48  41 40 39 48  33 44 46 48  45 46 48 47  45 44 46 48  25 46 48 47  33 38 46 48  9 22 46 48  9 38 46 48  25 22 46 48  33 44 43 49  45 44 43 49  33 44 50 51  33 44 49 51  45 50 51 52  45 44 50 51  45 44 49 51  33 44 48 50  45 48 50 52  45 44 48 50  45 24 53 47  25 24 53 47  45 53 54 47  25 53 54 47  </DataArray>
<DataArray  type="UInt32"  Name="offsets"  format="ascii">4 8 12 16 20 24 28 32 36 40 44 48 52 56 60 64 68 72 76 80 84 88 92 96 100 104 108 112 116 120 124 128 132 136 140 144 148 152 156 160 164 168 172 176 180 184 188 192 196 200 204 208 212 216 220 224 228 232 236 240 244 248 252 256 260 264 268 272 276 280 284 288 292 296 300 304 308 312 316 320 324 328 332 336 340 344 348 352 356 360 364 368 372 376 380 384 388 392 396 400 404 408 412 416 420 424 428 432 436 440 444 448 452 456 460 464 468 472 476 480 484 488 492 496 500 504 </DataArray>
<DataArray  type="UInt8"  Name="types"  format="ascii">10 10 10 10 10 10 10 10 10 10 10 10 10 10 10 10 10 10 10 10 10 10 10 10 10 10 10 10 10 10 10 10 10 10 10 10 10 10 10 10 10 10 10 10 10 10 10 10 10 10 10 10 10 10 10 10 10 10 10 10 10 10 10 10 10 10 10 10 10 10 10 10 10 10 10 10 10 10 10 10 10 10 10 10 10 10 10 10 10 10 10 10 10 10 10 10 10 10 10 10 10 10 10 10 10 10 10 10 10 10 10 10 10 10 10 10 10 10 10 10 10 10 10 10 10 10 </DataArray>
</Cells>
<PointData  Vectors="u"> 
<DataArray  type="Float64"  Name="u"  NumberOfComponents="3" format="ascii">1.9999999999792882e+02 8.3101578797125246e-11 9.7342824914112646e-10  1.9999999999668390e+02 -3.2204370740023756e-12 -1.2494133644220275e-10  1.9999999999665775e+02 -2.2843708349716488e-10 -7.1614361276750771e-10  1.9999999999663825e+02 -1.0430125166558161e-10 5.0528959996162916e-11  1.9999999999576343e+02 7.2112220765745371e-12 9.4735052013905721e-10  1.9999999999539006e+02 2.6768076995123240e-11 -2.1513901369532692e-10  1.9999999999554237e+02 6.4496868990955005e-11 -1.0169600981290596e-11  1.9999999999573365e+02 2.2705830810761405e-10 9.1961923508266345e-10  1.9999999999574351e+02 -1.0728334796084667e-10 -2.2622584487289036e-10  1.9999999999567862e+02 1.9161145650001669e-11 2.0835447371817579e-10  1.9999999999805499e+02 1.5764487318494419e-11 -3.6564433737233620e-11  1.9999999999790143e+02 4.3208161253449907e-11 9.2729629474999999e-10  1.9999999999682868e+02 -1.6066657952086198e-10 -2.7948484549649270e-10  1.9999999999680611e+02 3.5623100487931395e-11 -9.7563497422663831e-12  1.9999999999456730e+02 1.1241943132748170e-11 -1.1507986391846718e-10  1.9999999999453902e+02 2.4206384732199921e-11 -6.7533057972451492e-10  1.9999999999460184e+02 -1.0523947362335509e-10 -3.9133103790407665e-11  1.9999999999349461e+02 3.6154686018693167e-11 4.5448349319145466e-10  1.9999999999690894e+02 1.0045852173863859e-10 -1.8190647694959347e-10  1.9999999999699790e+02 -1.1284840396229553e-10 -7.5839494618014614e-10  1.9999999999676658e+02 -3.5183367362958917e-11 -3.1585075882436515e-11  1.9999999999660793e+02 1.8397512475448696e-11 -2.4337568065851004e-10  1.9999999999568269e+02 2.8090543508132328e-10 -1.2390388532483589e-10  1.9999999999669643e+02 3.1238250070659446e-11 -4.7472222492151477e-11  1.9999999999661051e+02 5.9935140609533949e-11 -7.3824053083815734e-11  1.9999999999570301e+02 -9.8346123660039457e-11 8.8661938783656929e-11  1.9999999999658328e+02 9.7228596282023521e-11 -1.7560034965441402e-10  1.9999999999792087e+02 6.9840588614408565e-10 1.0145433709700467e-09  1.9999999999666699e+02 -4.9993564359999816e-11 -2.5510809297732167e-10  1.9999999999641540e+02 1.5194547808041541e-10 -7.3603346425419113e-10  1.9999999999777506e+02 4.0743972253398397e-11 1.0240723801257743e-10  1.9999999999660744e+02 4.2663315068286078e-11 -1.6507299546511206e-10  1.9999999999569548e+02 1.1781543628114260e-10 -7.5338430418299323e-11  1.9999999999575763e+02 4.4769076086678577e-11 2.3408270497881542e-10  1.9999999999790148e+02 9.6275769322459879e-11 2.5770742982248152e-10  1.9999999999672775e+02 1.9164453967189248e-11 1.7644986274626253e-10  1.9999999999666349e+02 -3.6648996055540260e-11 -3.0232957755459471e-10  1.9999999999776347e+02 2.2441182880691244e-10 -1.6743802544959162e-10  1.9999999999567379e+02 1.1473128252174837e-11 9.7364617850124764e-11  1.9999999999452018e+02 -1.1378477124081029e-11 -1.0658467950760802e-10  1.9999999999464737e+02 2.3282084359515917e-11 -1.6733966946790461e-10  1.9999999999345366e+02 -4.8993590245968856e-12 5.0884172309830425e-11  1.9999999999668182e+02 7.1467009589371885e-11 -1.3346942943851301e-11  1.9999999999670649e+02 2.8804600315861980e-11 -1.1436303952049789e-10  1.9999999999557875e+02 3.0931581009152519e-11 -3.9441343048948602e-11  1.9999999999570244e+02 2.1126704242343126e-11 1.3260277094145047e-10  1.9999999999555973e+02 3.7030179690445984e-11 -1.6414841243082044e-10  1.9999999999555897e+02 4.9544523361965561e-11 6.5799950436927041e-11  1.9999999999445862e+02 -2.5696644059810700e-11 -1.5935911931742601e-10  1.9999999999542098e+02 3.4436107151672633e-11 -1.4157027062824825e-10  1.9999999999455039e+02 1.5553741572866345e-10 -1.1352221175807603e-10  1.9999999999447718e+02 2.0724885057089017e-11 -9.1265693576094151e-11  1.9999999999457907e+02 1.3969473519584342e-10 -5.5460470601240857e-11  1.9999999999663780e+02 1.3698757351363560e-10 -1.1976541825495425e-10  1.9999999999673673e+02 5.0981509040091712e-11 -6.1549829237665091e-12  </DataArray> 
</PointData> 
</Piece>
</UnstructuredGrid>
</VTKFile>