<?xml version="1.0"?>
<VTKFile type="UnstructuredGrid"  version="0.1"  >
<UnstructuredGrid>
<Piece  NumberOfPoints="53" NumberOfCells="127">
<Points>
<DataArray  type="Float64"  NumberOfComponents="3"  format="ascii">0 1.666666666666667 3.333333333333333  0.8333333333333334 2.5 4.166666666666667  0 2.5 4.166666666666667  0 1.666666666666667 4.166666666666667  0 1.666666666666667 5  0.8333333333333334 2.5 5  0 2.5 5  0 2.5 3.333333333333333  1.666666666666667 0 3.333333333333333  1.666666666666667 0.8333333333333334 3.333333333333333  1.666666666666667 0.8333333333333334 2.5  0.8333333333333334 0.8333333333333334 2.5  1.666666666666667 0 2.5  0.8333333333333334 0 2.5  1.666666666666667 1.666666666666667 3.333333333333333  0 0 3.333333333333333  0.8333333333333334 0.8333333333333334 3.333333333333333  0.8333333333333334 0 3.333333333333333  0 0 2.5  0 0.8333333333333334 3.333333333333333  0 0.8333333333333334 2.5  0.8333333333333334 1.666666666666667 3.333333333333333  0.8333333333333334 0.8333333333333334 4.166666666666667  1.666666666666667 0.8333333333333334 4.166666666666667  1.666666666666667 1.666666666666667 4.166666666666667  1.666666666666667 1.666666666666667 5  0.8333333333333334 0 4.166666666666667  1.666666666666667 0 4.166666666666667  1.666666666666667 0 5  1.666666666666667 0.8333333333333334 5  0 0 4.166666666666667  0 0 5  0.8333333333333334 0.8333333333333334 5  0.8333333333333334 0 5  0.8333333333333334 1.666666666666667 4.166666666666667  0 0.8333333333333334 4.166666666666667  0 0.8333333333333334 5  0.8333333333333334 1.666666666666667 5  1.666666666666667 2.5 4.166666666666667  1.666666666666667 2.5 5  1.666666666666667 3.333333333333333 5  2.5 2.5 4.166666666666667  2.5 2.5 5  2.5 0.8333333333333334 3.333333333333333  2.5 0 3.333333333333333  2.5 0.8333333333333334 2.5  2.5 0 2.5  2.5 0.8333333333333334 4.166666666666667  2.5 0 4.166666666666667  2.5 0.8333333333333334 5  2.5 0 5  2.5 1.666666666666667 5  2.5 1.666666666666667 4.166666666666667  </DataArray>
</Points>
<Cells>
<DataArray  type="UInt32"  Name="connectivity"  format="ascii">0 1 3 2  4 1 5 6  4 1 2 6  4 1 3 2  0 7 1 2  8 11 10 9  8 11 10 12  8 11 12 13  14 11 10 9  15 11 16 17  15 11 13 17  15 11 13 18  8 11 9 16  8 11 16 17  8 11 13 17  14 11 9 16  15 11 16 19  15 11 20 19  15 11 20 18  0 11 21 16  0 11 16 19  0 11 20 19  14 11 21 16  15 16 17 22  8 9 23 22  8 9 16 22  8 16 17 22  14 24 23 22  14 9 23 22  14 9 16 22  25 24 23 22  15 17 22 26  8 23 27 22  8 27 22 26  8 17 22 26  28 23 22 29  28 23 27 22  28 27 22 26  25 23 22 29  15 22 26 30  31 22 32 33  31 22 26 33  31 22 26 30  28 22 29 32  28 22 32 33  28 22 26 33  25 22 29 32  15 16 19 22  0 21 22 34  0 21 16 22  0 16 19 22  14 24 22 34  14 21 22 34  14 21 16 22  25 24 22 34  15 22 30 35  31 22 32 36  31 22 35 36  31 22 30 35  4 22 32 37  4 22 32 36  4 22 35 36  25 22 32 37  15 19 22 35  0 3 22 34  0 3 22 35  0 19 22 35  4 22 34 37  4 3 22 34  4 3 22 35  25 22 34 37  0 21 1 34  14 38 1 24  14 1 24 34  14 21 1 34  25 38 1 39  25 38 1 24  25 1 24 34  40 38 1 39  0 1 3 34  4 1 5 37  4 1 34 37  4 1 3 34  25 1 5 39  25 1 5 37  25 1 34 37  40 1 5 39  14 38 41 24  25 41 39 42  25 38 41 39  25 38 41 24  40 41 39 42  40 38 41 39  8 45 44 43  8 45 46 44  8 45 12 46  8 45 9 43  8 45 10 9  8 45 10 12  14 45 9 43  14 45 10 9  8 44 43 47  8 44 47 48  8 27 47 48  28 47 49 50  28 47 48 50  28 27 47 48  8 9 43 47  14 9 43 47  8 23 27 47  28 29 47 49  28 23 29 47  28 23 27 47  25 47 49 51  25 29 47 49  25 23 29 47  8 9 23 47  14 24 47 52  14 24 23 47  14 9 23 47  25 47 52 51  25 24 47 52  25 24 23 47  14 41 24 52  25 41 42 51  25 41 52 51  25 41 24 52  </DataArray>
<DataArray  type="UInt32"  Name="offsets"  format="ascii">4 8 12 16 20 24 28 32 36 40 44 48 52 56 60 64 68 72 76 80 84 88 92 96 100 104 108 112 116 120 124 128 132 136 140 144 148 152 156 160 164 168 172 176 180 184 188 192 196 200 204 208 212 216 220 224 228 232 236 240 244 248 252 256 260 264 268 272 276 280 284 288 292 296 300 304 308 312 316 320 324 328 332 336 340 344 348 352 356 360 364 368 372 376 380 384 388 392 396 400 404 408 412 416 420 424 428 432 436 440 444 448 452 456 460 464 468 472 476 480 484 488 492 496 500 504 508 </DataArray>
<DataArray  type="UInt8"  Name="types"  format="ascii">10 10 10 10 10 10 10 10 10 10 10 10 10 10 10 10 10 10 10 10 10 10 10 10 10 10 10 10 10 10 10 10 10 10 10 10 10 10 10 10 10 10 10 10 10 10 10 10 10 10 10 10 10 10 10 10 10 10 10 10 10 10 10 10 10 10 10 10 10 10 10 10 10 10 10 10 10 10 10 10 10 10 10 10 10 10 10 10 10 10 10 10 10 10 10 10 10 10 10 10 10 10 10 10 10 10 10 10 10 10 10 10 10 10 10 10 10 10 10 10 10 10 10 10 10 10 10 </DataArray>
</Cells>
<PointData  Vectors="u"> 
<DataArray  type="Float64"  Name="u"  NumberOfComponents="3" format="ascii">2.0000000000076861e+02 5.9342656572086778e-11 7.9296819523868726e-11  1.9999999999887837e+02 -7.1375630857147726e-11 -4.1328121015425673e-11  1.9999999999967801e+02 -1.3382355661295152e-11 7.2406877942892568e-12  1.9999999999997354e+02 1.3471715296370865e-10 1.0663011325107322e-10  2.0000000000061297e+02 -8.9876092415011050e-11 -5.7948206433571022e-10  1.9999999999875604e+02 1.0547140443227044e-12 1.2469010712862604e-10  1.9999999999998474e+02 5.5034117239208892e-12 1.1261971501143080e-10  1.9999999999998522e+02 -8.4265106057252468e-11 -1.9149902486869455e-10  1.9999999999787426e+02 6.8730325895224820e-10 1.9774557969067012e-10  1.9999999999787855e+02 -9.2294050760248903e-11 -1.0305166537825835e-11  1.9999999999777981e+02 -1.7730848142617410e-10 -1.3129816469274500e-11  1.9999999999879094e+02 -1.1488029561061453e-10 -8.5229838742044466e-11  1.9999999999788557e+02 5.1591676587228691e-11 -5.7926068313879602e-11  1.9999999999883113e+02 -3.0193269611283035e-10 -2.6417387133234348e-11  1.9999999999794971e+02 -1.1535677497444374e-11 1.4259585436837928e-10  2.0000000000064833e+02 6.5049152517848610e-10 1.5443074365767101e-10  1.9999999999895292e+02 -8.5009134162853888e-11 2.0917221630644989e-11  1.9999999999888038e+02 1.0820108312076136e-10 1.3317150217318403e-11  2.0000000000010317e+02 -1.8625714917735353e-11 -2.5157839215341276e-11  2.0000000000007239e+02 -1.6933456896469259e-10 5.8871945316412176e-11  1.9999999999972246e+02 -1.6835352867682046e-10 -4.4463096611817417e-11  1.9999999999887686e+02 -2.8582464759578928e-11 -6.4368837180200702e-11  1.9999999999889863e+02 -1.8432278964271253e-10 -3.2243587349531979e-11  1.9999999999789068e+02 9.0524842112529358e-11 -1.6176094457829843e-10  1.9999999999793130e+02 1.2756987887091213e-10 7.4949299737816219e-11  1.9999999999799746e+02 -1.0420522251297377e-10 -5.9435002822334358e-10  1.9999999999884113e+02 -4.1116409566355927e-10 2.2493602751975267e-11  1.9999999999784058e+02 3.9166680380948559e-11 1.1033987354416400e-10  1.9999999999792897e+02 6.0067584280963849e-10 -6.6579093990616978e-10  1.9999999999761818e+02 -5.1512176760065990e-11 4.0387930036071527e-11  2.0000000000010706e+02 -1.0710513265762012e-11 4.0979144452917620e-11  2.0000000000055405e+02 4.8804650224909241e-10 -5.6161802750736906e-10  1.9999999999885648e+02 -1.1081574404906018e-10 1.9285625496110399e-10  1.9999999999887902e+02 1.1461613199174990e-10 3.3233662722013786e-11  1.9999999999876914e+02 -5.0612832812443537e-11 1.2258745770667623e-10  1.9999999999951820e+02 -1.5364950425253959e-10 5.1208979246115741e-11  2.0000000000006497e+02 -2.9978115384022180e-11 3.5677377082704320e-11  1.9999999999882795e+02 -1.6957137519833246e-10 1.9871281601694261e-11  1.9999999999790350e+02 -7.3809234261221478e-11 -1.6335976570496267e-10  1.9999999999793360e+02 -1.1091769367800564e-10 8.2363511342320649e-11  1.9999999999790597e+02 8.4273588585338657e-11 -6.5438174135186837e-10  1.9999999999673673e+02 5.0981509040091712e-11 -6.1549829237665091e-12  1.9999999999678403e+02 -1.1616405251750902e-10 2.2877689089949751e-10  1.9999999999667526e+02 -1.9299331751815720e-10 6.2217483832631274e-11  1.9999999999669538e+02 -1.1887202736822587e-10 -6.3598922516974923e-11  1.9999999999670649e+02 2.8804600315861980e-11 -1.1436303952049789e-10  1.9999999999667946e+02 -3.8744875463459878e-10 3.2372563754556611e-11  1.9999999999661176e+02 -1.0549629071696481e-10 5.2881543332891441e-12  1.9999999999665843e+02 -5.4109749252106143e-10 1.4901674554470148e-10  1.9999999999663595e+02 -8.6476605706489203e-11 3.4868545131713681e-10  1.9999999999661716e+02 1.1215742625694735e-10 7.4206281854103025e-12  1.9999999999668285e+02 -1.4422634460219887e-10 1.9693229282341159e-11  1.9999999999674156e+02 6.1467869648919300e-11 7.9211941887967240e-11  </DataArray> 
</PointData> 
</Piece>
</UnstructuredGrid>
</VTKFile>