<?xml version="1.0"?>
<VTKFile type="UnstructuredGrid"  version="0.1"  >
<UnstructuredGrid>
<Piece  NumberOfPoints="5441" NumberOfCells="24656">
<Points>
<DataArray  type="Float64"  NumberOfComponents="3"  format="ascii">19.1051598216 4.286580303 24.3147401918  18.645020958 4.6752241162 23.688462276  18.29964693485 4.951794342099999 24.4696454453  18.93829453445 5.14640416095 24.0845119038  18.7714292473 6.0062280189 23.8542836158  18.47815567085 5.53504797415 23.458233988  18.1848820944 5.0638679294 23.0621843602  20.9981169749 1.3033283608 28.0260205712  21.09183453495 0.66556992075 27.56068267685  21.19274818865 0.9554585622 27.1586374241  21.3545938051 0.9738717134999999 27.70880862985  20.73535770475 0.9950265680499999 27.8778946182  20.83627135845 1.2849152095 27.47584936545  20.674425742 1.2665020582 26.9256781597  20.5735120883 0.97661341675 27.32772341245  20.4725984346 0.6867247753 27.7297686652  21.7110706353 0.6444150662 27.3915966885  19.0545096752 6.8701903993 25.1639136885  19.7354976926 6.5111581863 25.92032817015  19.7457865345 6.993654413650001 25.33386126895  19.72853320505 7.1410707512 26.34460821015  19.0442208333 6.387694171950001 25.7503805897  19.0339319914 5.9051979446 26.3368474909  20.4370633938 7.117118428 25.5038088494  19.7048985501 4.5237752037 23.3943343437  19.79347692505 4.9060457326 22.69422549305  19.30363487765 4.76575399385 22.92810831125  19.66145203125 5.0432855199 23.15142077635  19.8369234439 4.386535416399999 22.9371390604  19.4791062903 4.109003890349999 22.7138265953  19.3470813965 4.24624367765 23.1710218786  18.9892642429 3.9687121516 22.9477094135  19.9689483377 4.2492956291 22.4799437771  19.6180055124 5.5627958361 22.908507209  21.1534610395 6.1741335854 24.6758529589  20.79526221665 6.645626006700001 25.08983090415  20.09369651545 6.039665765000001 25.5063502249  20.10398535735 6.52216199235 24.9198833237  18.94489032225 4.793821566549999 23.22825935195  19.2381638987 5.2650016113 23.62430897975  18.9014438034 5.31333188275 22.9853457846  19.19471737985 5.784511927500001 23.3813954124  20.0081825279 6.9510442056 28.1435827181  20.6238281472 5.7339193613 28.06690202145  20.45179161175 6.02739677255 28.9198038945  20.6141164509 6.62888475265 28.53256027645  19.84585768875 6.3495562255 28.53082633615  20.0178942242 6.05607881425 27.6779244631  19.6835328496 5.7480682454 28.9180699542  19.85556938505 5.45459083415 28.06516808115  21.2200503739 6.3067252997 28.9215378348  20.0276059205 5.1611134229 27.2122662081  19.5374688352 3.5119236468 26.5699209878  19.78253737785 4.33651853485 26.89109359795  19.83909945485 3.6064391884 26.3370610675  19.5404059461 4.5128063254 26.5097798688  19.5969680231 3.78272697895 25.95574733835  20.1407300745 3.70095473 26.1042011472  20.0841679975 4.43103407645 26.65823367765  20.4396930165 2.333246027 28.4689407705  20.55705937925 1.7998740426 27.6973094651  20.5843426525 2.46040533525 27.44498283965  20.192559348 2.5019936963 27.6435875837  19.9454256795 2.6707413656 26.8182343969  20.30992571075 1.9686217119 26.8719562783  20.337208984 2.62915300455 26.61962965285  20.7289922885 2.5875646435 26.4210249088  20.70170901525 1.92703335085 26.67335153425  20.1307730503 4.812914863 23.9479466224  19.59264136275 5.84155263115 24.55593015545  20.2331567152 5.4363911933 23.80279524405  20.6421170449 5.4935242242 24.31189979065  20.7445007098 6.117000554500001 24.1667484123  20.3355403801 6.0598675236 23.6576438657  19.69502502765 6.465028961450001 24.4107787771  20.1008378684 7.7169734316 23.997927782  19.5776737718 7.29358191545 24.58092073525  19.43613355785 6.86160072525 23.9261056989  20.21818912425 6.8884204776 23.82778582385  18.91296946125 6.4382092091 24.50909865215  19.5534848137 6.033047771250001 23.75596374075  19.0200030163 7.1650230744 27.1854075709  19.02696750385 6.5351105095 26.7611275309  19.5238044684 6.163068248649999 27.1988368895  20.23948945865 6.9248258847 26.8073728413  21.458975901 6.684628695 26.4293381117  20.2464539462 6.2949133198 26.3830928013  20.74329091075 5.922871058949999 26.8208021599  19.53076895595 5.53315568375 26.7745568495  20.3060489363 4.4230096548 24.8864365349  19.66999046385 5.1641037997 25.6116420129  20.69212114195 4.81207211105 25.4575374621  20.1668274284 4.79206153885 26.0493513715  20.0560626695 5.55316625595 26.1827429401  20.55289963405 5.1811239951 26.6204522987  21.0781933476 5.2011345673 26.0286383893  19.1296904093 8.1747970498 24.2506526113  19.39874163255 7.58730684635 25.11221771645  19.09210004225 7.52249372455 24.7072831499  19.16761749495 8.174612045450001 25.19202689505  19.4363319996 8.239610171599999 24.65558717785  19.7429735899 8.304423293399999 25.0605217444  19.1300271279 7.5223087202 25.64865743365  20.3187020308 3.6606482411 29.1240269844  20.2240629751 3.22132967025 28.3062090334  19.8403277592 3.48212026845 28.58031341935  20.46439198295 3.76779435785 28.2843737004  20.7024372467 3.3998576429 28.84992259845  21.0861724626 3.1390670447 28.5758182125  20.84812719885 3.50700375965 28.01026931445  20.6100819351 3.8749404746 27.4447204164  19.98601771135 3.5892663852 27.74066013535  19.3619534876 3.3035922958 28.0365998543  19.90082325205 2.8184191614 28.2527703124  20.5248874758 3.1040932508 27.95683059345  19.65368958355 2.9871668307 27.4274171256  20.2777538073 3.2728409201 27.13147740665  20.17315397565 4.410880832 28.16814659625  19.69477970405 4.23235285935 27.6244330312  20.3188439278 4.51802694875 27.32849331225  18.985257181 7.6910023239 23.2115613486  19.0198834281 7.280596361600001 24.18773751855  18.2873422437 7.53122778635 23.9980234843  18.87834321415 6.848615171400001 23.5329224822  19.04721203225 4.1276462273 23.63122480265  19.40502918585 4.405177753349999 23.85453726775  18.58707316865 4.516290040499999 23.00494688685  19.2055445806 8.1744270411 26.1334011788  19.8213039872 7.64577273455 25.8186050141  19.5227431686 4.5258302706 28.47733490425  19.55636110825 5.2101343431 29.4419992317  18.9995441339 5.5036267767 29.0363681058  20.2689506311 7.4170459298 24.7508683157  20.09001849185 7.7107708607 25.2821652969  19.92190572915 8.010698362499999 24.5292247632  20.2927330815 5.07648595905 28.21048526885  20.12069654605 5.3699633703 29.0633871419  20.8889553082 5.64929189745 29.0651210822  20.5578602425 4.9918584952 29.2087043296  20.9911067025 3.99169511045 28.22064312865  20.84541675035 3.8845489937 29.06029641265  21.3721314699 4.1084497463 28.9965658409  21.22915196625 3.6237583955 28.7861920267  21.550467207 2.247542523 28.1763378204  21.7012105844 1.2711680037 27.96587587515  21.63076892115 1.4459787946 27.78396725445  21.97738570045 1.7432750848 28.04103449975  21.27429209095 1.7754354419 28.1011791958  22.4043041939 1.2390076466 27.9057311791  22.0576874146 0.9417113563999999 27.6486639338  20.7576283707 6.15912649765 25.76622361935  21.11582719355 5.687634076349999 25.3522456741  20.0883887163 8.832579753899999 25.9354351872  20.16821443495 7.598838208150001 26.3305091655  20.26272605505 7.97484909095 25.7196220183  19.64696664845 8.503503397499999 26.034418183  19.9938770962 8.4565688711 26.5463223344  19.8993654761 8.080557988300001 27.1572094816  19.55245502835 8.1274925147 26.6453053302  21.507230862 1.9794188674 27.0797804089  21.463994517 1.7112952118 25.9832229974  21.58753257615 1.177855139 26.68740984295  21.93414935545 1.4751514292 26.94447708825  19.333173725 1.5707813348 26.9851592819  19.9028860798 1.12875305505 27.35746397355  19.5545882007 1.1483740185 27.11011105335  20.0037997335 1.4186416965 26.9554187208  20.2252142092 0.9962343802 27.08037049225  19.7760026764 0.7259667022 27.2350628248  20.1243005555 0.7063457387500001 27.482415745  21.1124464745 1.7570222906 27.55100799005  20.0011174402 4.70435824325 29.0210484693  19.87394569885 4.16642434095 29.5449777468  20.76293273955 2.73615653585 28.5223794915  20.7189049957 1.8182871939 28.24748067085  19.88643337075 1.9520136809 27.7270500262  20.16564534995 1.4370548478 27.50558992655  21.0692101295 1.488898635 26.45445057855  21.17550492875 0.9995897306999999 26.67222866135  21.57028931625 1.2219863075 26.2010010802  21.6765841155 0.7326774032 26.418779163  21.6938273754 0.6885462347 26.90518792575  21.09649340275 2.14942992765 26.2021239531  21.13972974775 2.41755358325 27.2986813646  20.99508011175 2.290394275 28.32263929545  20.043077877 3.1858480478 26.46121777205  19.74144725735 3.0913325062 26.69407769235  20.07377538515 3.6934320607 27.0073207021  20.3754060048 3.7879476023 26.7744607818  19.95990686505 4.1477253955 28.62265209195  20.84413764135 4.53803752095 26.73667940285  20.60946171105 4.45104464865 26.06641976825  19.2535695967 4.919516887549999 24.72566565805  19.3412075397 4.72456428345 25.1949106143  19.68027930575 5.646600027050001 25.0251751117  20.2184109933 4.6179622589 24.41719157865  18.71543790915 5.9481546557 25.3336491911  18.3763661431 5.0261189121 25.5033846937  21.2685846243 5.94288163115 26.2289882505  18.5738976952 5.5161734655 24.67883415475  18.74076298235 4.65634960755 24.90906244275  19.4511011488 5.40957144095 23.9011151191  19.61796643595 4.549747583 24.1313434071  19.05747379515 7.93289968685 23.73110697995  18.56243971495 7.10557931515 22.4088908047  19.09583178495 7.573956364100001 22.53156284545  18.67332292905 7.9728914574 22.2455763283  19.2064063889 7.4569104043 21.8515643423  20.00782499755 7.3329195747 23.40536238845  19.9148121267 6.9488657178 22.8127969949  20.1251762534 6.504366620700001 23.2352204303  19.343120687 6.47754686835 23.33354030535  19.61526413885 7.9458852407 24.12429019665  19.58733103295 4.8030763373 26.22052431905  19.6212833418 4.247554916449999 27.2425470937  19.47425908525 8.239425167249999 25.5969614616  18.451865111 7.22262527495 23.08888930785  18.34495114415 6.38023812245 23.41025044145  17.918473041 6.754248226 22.9662172671  20.73357921445 6.8178364503 27.2864604149  20.67917068855 7.382593341650001 26.79327379665  19.953774002 7.51580109695 27.65039609985  19.4596842462 7.622790531350001 27.17130852625  19.51
[...]
<PointData  Scalars="p"> 
<DataArray  type="Float64"  Name="p"  format="ascii">8.0082404746025038e+00  8.0077354602246178e+00  8.0073728545812131e+00  8.0088031867833998e+00  8.0093508617190867e+00  8.0084548488824350e+00  8.0076243414642185e+00  8.0101324518621535e+00  8.0105354120946384e+00  8.0109991420632305e+00  8.0109455861762431e+00  8.0095955185280037e+00  8.0101078177823943e+00  8.0102058183547022e+00  8.0095364094291366e+00  8.0088621637507096e+00  8.0117976681225578e+00  8.0114788781150121e+00  8.0120561969735267e+00  8.0124500991044343e+00  8.0131784203453069e+00  8.0110648512194391e+00  8.0101585942706599e+00  8.0135806601173698e+00  8.0094143843509293e+00  8.0098180683595803e+00  8.0090179051350781e+00  8.0097092323163643e+00  8.0095760685217385e+00  8.0089654753011281e+00  8.0086591849748423e+00  8.0080316141806875e+00  8.0098315269177558e+00  8.0099018000480537e+00  8.0127776919498857e+00  8.0131079942272088e+00  8.0117691874495325e+00  8.0120519666720629e+00  8.0084378455618648e+00  8.0092964941933662e+00  8.0087632469314443e+00  8.0095563787515438e+00  8.0130931709482009e+00  8.0121755499490082e+00  8.0120395719079518e+00  8.0133384373060483e+00  8.0115867210443827e+00  8.0117149713372147e+00  8.0102526101253151e+00  8.0105566553798937e+00  8.0135646876545810e+00  8.0106960312226470e+00  8.0087259429992841e+00  8.0095925224996307e+00  8.0096145143834168e+00  8.0093131968731317e+00  8.0092064684719340e+00  8.0103557806981325e+00  8.0102606695272964e+00  8.0091770851485435e+00  8.0096177462945075e+00  8.0100178511977074e+00  8.0092859373864247e+00  8.0092849466270319e+00  8.0096929512955484e+00  8.0102075189736404e+00  8.0109566321732100e+00  8.0106447872492641e+00  8.0105376176491045e+00  8.0105659190944216e+00  8.0108849939654885e+00  8.0116008405661319e+00  8.0120382592711863e+00  8.0112901072332967e+00  8.0111796159911606e+00  8.0123427443760065e+00  8.0118522563784769e+00  8.0107603433152548e+00  8.0117659868975970e+00  8.0103178058167774e+00  8.0103258965077888e+00  8.0122013735103330e+00  8.0112265082690861e+00  8.0111656776439197e+00  8.0135583650382820e+00  8.0145610198291344e+00  8.0124933094243698e+00  8.0126978209488815e+00  8.0103273741505063e+00  8.0109673434307975e+00  8.0102345060388398e+00  8.0115569818494254e+00  8.0107404949632919e+00  8.0112531989787747e+00  8.0116095728683820e+00  8.0123086678377575e+00  8.0109868128533002e+00  8.0125165179122479e+00  8.0115732728917877e+00  8.0127678476900392e+00  8.0122235350462390e+00  8.0135426564383625e+00  8.0128606058324898e+00  8.0094576288808543e+00  8.0094221689457203e+00  8.0088908466105568e+00  8.0101472820026931e+00  8.0101303595690379e+00  8.0107555753608217e+00  8.0106823090211883e+00  8.0106381208685757e+00  8.0093725637390083e+00  8.0080984525032655e+00  8.0087072111859143e+00  8.0099712432815942e+00  8.0085972847900191e+00  8.0099353845978385e+00  8.0101199397340697e+00  8.0092307019812381e+00  8.0106019398743395e+00  8.0095701668934112e+00  8.0106439167369494e+00  8.0091257633499691e+00  8.0097279523784799e+00  8.0079133328455878e+00  8.0088233317386024e+00  8.0077138745173286e+00  8.0139045121282724e+00  8.0138368428436806e+00  8.0090448147354785e+00  8.0092818452440770e+00  8.0087045331591451e+00  8.0131111922203111e+00  8.0137950536220206e+00  8.0128705640818190e+00  8.0108852937979513e+00  8.0105427195949286e+00  8.0122874528909076e+00  8.0109284414386437e+00  8.0111513904816594e+00  8.0106648538575680e+00  8.0117604381704020e+00  8.0112370548381584e+00  8.0112288945270294e+00  8.0113962145360560e+00  8.0113188911564990e+00  8.0117441583865876e+00  8.0107115110670932e+00  8.0122179936029756e+00  8.0119835934185666e+00  8.0128145090945644e+00  8.0126097339417939e+00  8.0174552080956794e+00  8.0146064154207384e+00  8.0149971666616366e+00  8.0151666572036255e+00  8.0166633387888560e+00  8.0157165148237137e+00  8.0146688591634199e+00  8.0114131746187383e+00  8.0119039097079980e+00  8.0117185827448179e+00  8.0118948793359248e+00  8.0077643122040687e+00  8.0083441045261825e+00  8.0079070534403467e+00  8.0087895397489017e+00  8.0088917083425368e+00  8.0078958827641564e+00  8.0082855161090674e+00  8.0106323864019870e+00  8.0098083664208080e+00  8.0090425307409703e+00  8.0099799567254522e+00  8.0096305761602320e+00  8.0085395721085391e+00  8.0088751987335609e+00  8.0113181547353811e+00  8.0113900901623403e+00  8.0119083531321369e+00  8.0120425053756694e+00  8.0119440184536685e+00  8.0115287951520777e+00  8.0109124941096930e+00  8.0102868217019498e+00  8.0099574453525815e+00  8.0090808741876867e+00  8.0097828983560184e+00  8.0104245112693047e+00  8.0094955242656685e+00  8.0115198399537633e+00  8.0112367279889725e+00  8.0092225747245909e+00  8.0092528092267781e+00  8.0106534428548581e+00  8.0107702479683596e+00  8.0098916456392146e+00  8.0077672174674692e+00  8.0132918927509920e+00  8.0088785234184474e+00  8.0080057354630299e+00  8.0097866401162534e+00  8.0094411131500607e+00  8.0100767598279887e+00  8.0092445852613174e+00  8.0096458205564769e+00  8.0099358296074943e+00  8.0101526965311489e+00  8.0113293431233554e+00  8.0106532908574977e+00  8.0110790710497888e+00  8.0101032954996523e+00  8.0116185804733657e+00  8.0097027623617567e+00  8.0091530871680217e+00  8.0137905847959292e+00  8.0090358119990572e+00  8.0088802043344227e+00  8.0084683089944537e+00  8.0140690039947913e+00  8.0150474355899117e+00  8.0143292383053915e+00  8.0137140682031696e+00  8.0125741789877942e+00  8.0099221616818159e+00  8.0101442077350011e+00  8.0108291109088956e+00  8.0101694153592042e+00  8.0112082483155849e+00  8.0091703662877887e+00  8.0099912568594043e+00  8.0077755448724783e+00  8.0097512461563500e+00  8.0089061749546051e+00  8.0083744834717194e+00  8.0095204735896690e+00  8.0095178855177593e+00  8.0101026053478304e+00  8.0098491654394639e+00  8.0087368813061275e+00  8.0083518700911593e+00  8.0122481059276822e+00  8.0069184939677918e+00  8.0078607892378795e+00  8.0073870109341740e+00  8.0081690139733439e+00  8.0091592092001704e+00  8.0088574626945679e+00  8.0085318569008361e+00  8.0093500279116618e+00  8.0093550082073595e+00  8.0085818467413787e+00  8.0094193317582292e+00  8.0083071747964922e+00  8.0075134378409913e+00  8.0087367655138308e+00  8.0081908891689615e+00  8.0083997426635367e+00  8.0080380843820134e+00  8.0091095033261119e+00  8.0081073047856677e+00  8.0117424202122365e+00  8.0092379030018677e+00  8.0103921006204022e+00  8.0105776185765709e+00  8.0133362192000188e+00  8.0141366310180739e+00  8.0078736233998971e+00  8.0095936262047314e+00  8.0107488355447849e+00  8.0127112219026877e+00  8.0081692203260584e+00  8.0081758751195586e+00  8.0096501985599708e+00  8.0090771619024643e+00  8.0089575549127474e+00  8.0107939208940575e+00  8.0114087784713917e+00  8.0136636332817464e+00  8.0152116664384945e+00  8.0108795761673566e+00  8.0106390862775179e+00  8.0107500204808009e+00  8.0101468278772039e+00  8.0109885132634204e+00  8.0089278613105872e+00  8.0091548798554832e+00  8.0078578856130100e+00  8.0069001716105976e+00  8.0078755187850827e+00  8.0166661630916263e+00  8.0182724176840114e+00  8.0184349267867887e+00  8.0185408006240220e+00  8.0216418334178261e+00  8.0208707458410871e+00  8.0208245884347384e+00  8.0208744774012981e+00  8.0205147704539179e+00  8.0206422075859329e+00  8.0175848720890084e+00  8.0180329139154374e+00  8.0181132304854170e+00  8.0164775980264107e+00  8.0160535074753287e+00  8.0176983005851756e+00  8.0164468327111713e+00  8.0181465753949031e+00  8.0178483963241369e+00  8.0178434332359583e+00  8.0185012102560371e+00  8.0175361628846904e+00  8.0170565480981004e+00  8.0173394643825997e+00  8.0187449185403867e+00  8.0180746196894095e+00  8.0175456544605037e+00  8.0126358181137860e+00  8.0132397239280770e+00  8.0124141113075869e+00  8.0127151529679015e+00  8.0131895761175596e+00  8.0130686206728878e+00  8.0134979814682001e+00  8.0127410329077691e+00  8.0124034970389140e+00  8.0137296884644709e+00  8.0306781768032565e+00  8.0294996733816220e+00  8.0268891194618668e+00  8.0323667892567823e+00  8.0280399419471387e+00  8.0296486176361750e+00  8.0283689054077723e+00  8.0313077092279173e+00  8.0254926371792532e+00  8.0336903426164401e+00  8.0167023216850311e+00  8.0165743898548580e+00  8.0165232911697313e+00  8.0167664007198596e+00  8.0165298570856418e+00  8.0165799277689445e+00  8.0163703622152269e+00  8.0164517556355754e+00  8.0165155500844421e+00  8.0168205054284858e+00  8.0169819987640025e+00  8.0173579843165026e+00  8.0169158081281253e+00  8.0169410050614385e+00  8.0171143073941167e+00  8.0171471252460158e+00  8.0167733044073728e+00  8.0166601115068143e+00  8.0176475204849780e+00  8.0172664388520616e+00  8.0195246785424636e+00  8.0182945001923791e+00  8.0187215363151729e+00  8.0185749007537748e+00  8.0201499225185877e+00  8.0196066315011443e+00  8.0200567608460585e+00  8.0198894373327523e+00  8.0192061243026487e+00  8.0202036231113603e+00  8.0205401203251476e+00  8.0202757511292511e+00  8.0196130183415448e+00  8.0208935112331243e+00  8.0195410949646728e+00  8.0188123923645236e+00  8.0188609094010239e+00  8.0216341244783145e+00  8.0118821528289033e+00  8.0122174051615538e+00  8.0123535557028216e+00  8.0130373597598776e+00  8.0142615924024110e+00  8.0135615555011928e+00  8.0134375499754444e+00  8.0127626790692883e+00  8.0127943460197404e+00  8.0128109595747592e+00  8.0144294368437858e+00  8.0134329196426766e+00  8.0138538693320296e+00  8.0137367515169551e+00  8.0131969357386001e+00  8.0130164522132699e+00  8.0129026201642368e+00  8.0133116838059610e+00  8.0133008903422382e+00  8.0126781466782138e+00  8.0147943149055880e+00  8.0130487214322077e+00  8.0120272174840377e+00  8.0137307170050445e+00  8.0140014361649463e+00  8.0131074230707728e+00  8.0114159198683446e+00  8.0131371177277249e+00  8.0118232824160618e+00  8.0103950218476285e+00  8.0202357105266735e+00  8.0185475705215250e+00  8.0183183028250973e+00  8.0196061614366272e+00  8.0190812885329859e+00  8.0170806001564792e+00  8.0179761386709227e+00  8.0177290341071554e+00  8.0166362038584946e+00  8.0170058265913902e+00  8.0167829846814982e+00  8.0149726611383230e+00  8.0153946480085612e+00  8.0164031601172763e+00  8.0181665240817726e+00  8.0174572724751503e+00  8.0163058623641970e+00  8.0156844703705907e+00  8.0152954106659173e+00  8.0187323118997949e+00  8.0164094113673467e+00  8.0161095758684944e+00  8.0182637712877352e+00  8.0171633027266012e+00  8.0154419045776990e+00  8.0138774398134487e+00  8.0181268887809907e+00  8.0157005999574853e+00  8.0113294312741008e+00  8.0328232948369820e+00  8.0300896447165044e+00  8.0292402631164208e+00  8.0310275531306310e+00  8.0292839186137002e+00  8.0285754173597752e+00  8.0277946650115997e+00  8.0262531302040667e+00  8.0272562743078097e+00  8.0278550080731126e+00  8.0137286955632518e+00  8.0137952485010011e+00  8.0136962599117947e+00  8.0132264382130813e+00  8.0144868092893038e+00  8.0131927490484038e+00  8.0127130605661101e+00  8.0127835595051096e+00  8.0148828077729828e+00  8.0128651591181548e+00  8.0188914244415592e+00  8.0191776458984272e+00  8.0183499121338784e+00  8.0193681005512634e+00  8.0193319942748982e+00  8.0192892797385831e+00  8.0186683557867546e+00  8.0178353132414646e+00  8.0184993375799447e+00  8.0192137572229214e+00  8.0159926645747568e+00  8.0158486554221078e+00  8.0155303670367566e+00  8.0158636781177073e+00  8.0156600652443437e+00  8.0159980164593616e+00  8.0153234017055901e+00  8.0157167255439230e+00  8.0160355435237918e+00  8.0157702666034840e+00  8.0121055170130955e+00  8.0132867417583906e+00  8.0128114777876007e+00  8.0119686138729360e+00  8.0356797104074147e+00  8.0340697368009018e+00  8.0345712178493738e+00  8.0331636432993481e+00  8.0354878468807325e+00  8.0346821738652618e+00  8.0326407028089903e+00  8.0304556999202781e+00  8.0320000990115297e+00  8.0340257247515190e+00  8.0347163456055437e+00  8.0339005992418606e+00  8.0356931601973010e+00  8.0330576710484767e+00  8.0320311557497774e+00  8.0327589716731573e+00  8.0374246703432526e+00  8.0356507014406553e+00  8.0140627050563182e+00  8.0134856228963045e+00  8.0135118574843229e+00  8.0140775456951872e+00  8.0262879904187230e+00  8.0285090648841742e+00  8.0281621472726918e+00  8.0278696892560859e+00  8.0257187954921108e+00  8.0257017660204379e+00  8.0265150633103826e+00  8.0268056527392417e+00  8.0123087595331821e+00  8.0119809107217943e+00  8.0127745254047049e+00  8.0125251680335161e+00  8.0130596170143846e+00  8.0122815695527887e+00  8.0164056027126964e+00  8.0164732063901827e+00  8.0162289414622094e+00  8.0166217893565488e+00  8.0167802800009511e+00  8.0161737746852832e+00  8.0168960943385432e+00  8.0166382964092406e+00  8.0165538038798214e+00  8.0167530643792073e+00  8.0166255086047418e+00  8.0164819431840382e+00  8.0163658776025244e+00  8.0164828712769260e+00  8.0165810027646689e+00  8.0167144150068594e+00  8.0157588120882206e+00  8.0142235157625414e+00  8.0150948684497525e+00  8.0153624620091968e+00  8.0156515072108920e+00  8.0145476475453705e+00  8.0153159210604379e+00  8.0142564399511276e+00  8.0134272700354217e+00  8.0150877668071043e+00  8.0203580888634658e+00  8.0189300278852826e+00  8.0190115500715695e+00  8.0195963268606292e+00  8.0182801733800222e+00  8.0177387581251445e+00  8.0178510863568349e+00  8.0165224876528498e+00  8.0169013898792567e+00  8.0170125229746620e+00  8.0167194520628762e+00  8.0167413384038433e+00  8.0167895176068100e+00  8.0170822456253283e+00  8.0229731503497881e+00  8.0215935618670038e+00  8.0210716564355469e+00  8.0225286647904337e+00  8.0219440793457668e+00  8.0212560041631882e+00  8.0206739048757942e+00  8.0195163669296843e+00  8.0200355204575597e+00  8.0204950715176313e+00  8.0137366890185167e+00  8.0123195400178258e+00  8.0124398308991545e+00  8.0135069495262421e+00  8.0121824958062735e+00  8.0123319346689890e+00  8.0108813414009372e+00  8.0108630471773825e+00  8.0108310923311254e+00  8.0133237818849654e+00  8.0205265793928486e+00  8.0215632876396263e+00  8.0202806147406829e+00  8.0204794919332816e+00  8.0194694271445464e+00  8.0186657731757229e+00  8.0196085770086611e+00  8.0187369841399274e+00  8.0181238822234651e+00  8.0187496152346238e+00  8.0180818428719061e+00  8.0180884498863119e+00  8.0175336910485200e+00  8.0175725084968441e+00  8.0111284914917498e+00  8.0109334508104180e+00  8.0108915440197546e+00  8.0109876709624412e+00  8.0109926319064311e+00  8.0106711905450894e+00  8.0109476603450300e+00  8.0108189853585330e+00  8.0105602664471984e+00  8.0108152370180026e+00  8.0177294057358726e+00  8.0188757500313912e+00  8.0176407282931113e+00  8.0175876443573060e+00  8.0225396633496473e+00  8.0245787179982209e+00  8.0234103144076734e+00  8.0237467323124250e+00  8.0237757553399298e+00  8.0229496385909620e+00  8.0248461739548596e+00  8.0263280866817119e+00  8.0221037479438078e+00  8.0192013950834173e+00  8.0208738489021005e+00  8.0208790468960451e+00  8.0205181544862363e+00  8.0194247486154584e+00  8.0198539531446489e+00  8.0195595375698918e+00  8.0196845456747230e+00  8.0196874821123068e+00  8.0220836837364669e+00  8.0195862937535995e+00  8.0202538569434481e+00  8.0199513877606012e+00  8.0209036262825641e+00  8.0202039469617734e+00  8.0207746592463032e+00  8.0208340066668953e+00  8.0198931403555331e+00  8.0168983139551990e+00  8.0155956894929759e+00  8.0162691752630089e+00  8.0163934861030164e+00  8.0160590320360718e+00  8.0151759350474432e+00  8.0154849199928382e+00  8.0158733143631302e+00  8.0158435236585177e+00  8.0157679341688173e+00  8.0137053739600521e+00  8.0146540035474825e+00  8.0137533826993366e+00  8.0141385969409047e+00  8.0139069887354673e+00  8.0124286950911277e+00  8.0124579159323019e+00  8.0122428902149565e+00  8.0121148917966618e+00  8.0122238835058859e+00  8.0123665535845028e+00  8.0126951481651680e+00  8.0126915448285381e+00  8.0127652293610350e+00  8.0127999717653573e+00  8.0115706885247739e+00  8.0115277133664264e+00  8.0123745152760346e+00  8.0117802208494684e+00  8.0107960908933684e+00  8.0106661700057362e+00  8.0120630145473815e+00  8.0114351637989607e+00  8.0106823922644192e+00  8.0309404433916676e+00  8.0287796011752306e+00  8.0306980557077328e+00  8.0288331853245243e+00  8.0296838811572684e+00  8.0262363565644783e+00  8.0273403260750431e+00  8.0107067411347845e+00  8.0091310648934453e+00  8.0099844600896706e+00  8.0097556278082482e+00  8.0095675355400804e+00  8.0089168330273210e+00  8.0092078596560619e+00  8.0088465513542459e+00  8.0087325421800166e+00  8.0094194913385532e+00  8.0102439222614841e+00  8.0096454928284064e+00  8.0100618641995815e+00  8.0100245594385218e+00  8.0099075410287917e+00  8.0103634626450049e+00  8.0105702450562681e+00  8.0100540842513919e+00  8.0095909416773718e+00  8.0096368197080032e+00  8.0232277601759581e+00  8.0218406427497868e+00  8.0223909068419879e+00  8.0218164425875091e+00  8.0225401657563662e+00  8.0202753928281645e+00  8.0210096139642602e+00  8.0212315844758546e+00  8.0220143238543891e+00  8.0152314532445939e+00  8.0157031600035769e+00  8.0160773934464835e+00  8.0153044518500032e+00  8.0157263393485323e+00  8.0160467819905925e+00  8.0160676855374859e+00  8.0162787632851504e+00  8.0154160992239252e+00  8.0165823354394838e+00  8.0264898013938488e+00  8.0259999313745389e+00  8.0263142031194459e+00  8.0278713636315668e+00  8.0287305226761667e+00  8.0267569380903812e+00  8.0271235397892191e+00  8.0254162492649712e+00  8.0252403331366935e+00  8.0249604762211355e+00  8.0158869409413498e+00  8.0153940823865426e+00  8.0163468056261582e+00  8.0167341483811434e+00  8.0148433494087197e+00  8.0171494840701065e+00  8.0169955293779509e+00  8.0153808845142489e+00  8.0165259853711177e+00  8.0200148896375492e+00  8.0194756766281508e+00  8.0205094661042171e+00  8.0114676261984350e+00  8.0124130876746005e+00  8.0121026420050523e+00  8.0111643032342013e+00  8.0120073504094904e+00  8.0110476975080598e+00  8.0118036607230785e+00  8.0116307366102593e+00  8.0123976758769224e+00  8.0125930967305461e+00  8.0178109659363255e+00  8.0186836302221707e+00  8.0172512136556282e+00  8.0173483279253492e+00  8.0180329583661845e+00  8.0193206574903844e+00  8.0184715535551359e+00  8.0177691248736522e+00  8.0134980186113083e+00  8.0152888982099402e+00  8.0137972987305055e+00  8.0145552991583013e+00  8.0150198242147965e+00  8.0154871441909457e+00  8.0147457183919979e+00  8.0161376586333670e+00  8.0167619249981410e+00  8.0140356009027442e+00  8.0120974141940309e+00  8.0116986134560335e+00  8.0113448251588650e+00  8.0118459510565430e+00  8.0121070880751351e+00  8.0117135863395319e+00  8.0112243878877969e+00  8.0115311202923074e+00  8.0118578613040370e+00  8.0122519945135018e+00  8.0114900667304667e+00  8.0104046861253000e+00  8.0104723446422970e+00  8.0112178933466893e+00  8.0105188179591860e+00  8.0094421116815866e+00  8.0094971591704045e+00  8.0104027012820893e+00  8.0096109693097208e+00  8.0115951110503154e+00  8.0123502625426237e+00  8.0121844640145596e+00  8.0120055887066961e+00  8.0120418188780569e+00  8.0123026923027059e+00  8.0123804281442847e+00  8.0127287648254129e+00  8.0247903472030355e+00  8.0239449906150320e+00  8.0241096174980733e+00  8.0239046472877931e+00  8.0232554196911288e+00  8.0231260146464383e+00  8.0233248521112071e+00  8.0234314475711415e+00  8.0231631594003510e+00  8.0228232743739358e+00  8.0160681988123628e+00  8.0161669506178566e+00  8.0158512135527413e+00  8.0163541936662135e+00  8.0120376019011399e+00  8.0110008383008733e+00  8.0113719194180852e+00  8.0108537074637702e+00  8.0115210115511939e+00  8.0103589068266174e+00  8.0098715745827356e+00  8.0109892972315500e+00  8.0122628807920115e+00  8.0229140031636135e+00  8.0227955509363138e+00  8.0228813563616139e+00  8.0227512874023326e+00  8.0228472813320639e+00  8.0228215204258824e+00  8.0227355117114350e+00  8.0226117194048303e+00  8.0226704948935783e+00  8.0228731405222806e+00  8.0106622267140200e+00  8.0112441092750153e+00  8.0109105396792053e+00  8.0110613646756583e+00  8.0106775623898461e+00  8.0108993785560028e+00  8.0111152928124429e+00  8.0113174609061879e+00  8.0114642391578812e+00  8.0114739942419586e+00  8.0218369071256443e+00  8