<?xml version="1.0"?>
<VTKFile type="UnstructuredGrid"  version="0.1"  >
<UnstructuredGrid>
<Piece  NumberOfPoints="5268" NumberOfCells="23565">
<Points>
<DataArray  type="Float64"  NumberOfComponents="3"  format="ascii">28.933543898 29.3435754117 8.311664627700001  28.3399448798 28.75332061975 8.768221788049999  28.38863736925 29.32891668425 8.817504281400002  28.349987895 28.97734059565 8.198179719500001  28.88485140855 28.7679793472 8.26238213435  28.8361589191 28.1923832827 8.213099640999999  29.6616815943 24.7991904198 13.7294883395  29.99971932835 23.9495569693 13.19113672445  29.86609749595 24.04030464065 13.6201566737  30.05834634565 24.41619578835 13.74528793545  29.4694327446 24.4232992721 13.60435707775  29.603054577 24.33255160075 13.1753371285  29.2771838949 24.0474081244 13.479225816  29.4108057273 23.95666045305 13.05020586675  30.455011097 24.0332011569 13.7610875314  29.5444275597 23.8659127817 12.6211859175  28.6873069952 24.7211617209 12.8043040865  29.11586727745 24.2935372513 12.712745002  28.98224544505 24.38428492265 13.14176495125  29.17449429475 24.76017607035 13.266896213  29.3036473881 25.6741513772 12.9596496937  30.21131612285 24.9892666425 12.75088888825  29.58795484505 24.77949460125 12.8900728006  29.40893774195 25.21697507995 12.5051534777  29.4826644912 25.2366708985 13.3445690166  30.106025769 25.44644293975 13.20538510425  30.2850428721 25.00896246105 13.59030442715  30.9084041499 25.2187345023 13.4511205148  29.5142280958 24.7597987827 12.0506572617  30.2264158548 24.542323642 13.03615321615  29.52932782775 24.3128557822 12.3359215896  30.0111562196 25.5155824765 12.5033034787  29.90586586575 25.97275877375 12.9577996947  30.5080843434 26.2713661703 12.9559496957  30.70824424665 25.7450503363 13.20353510525  28.9282066622 30.2392934088 9.269758785900001  28.9308752801 29.79143441025 8.7907117068  28.45240193445 29.90268014075 8.372829765150001  29.1007675455 24.7404802518 12.4274806741  28.8174259409 25.3536437363 13.9549318578  29.0473049179 24.70052593035 13.7170788369  29.2395537676 25.07641707805 13.84221009865  29.0993797005 24.54250982045 14.0684262279  28.99547719165 25.19765654905 12.8819768901  37.0694729157 25.47375295 8.962056087100001  36.5242118875 25.97312069345 9.1865307143  36.0160635185 25.346555725 9.257612888300001  36.64222909695 25.46291526025 9.726397366250001  36.2149852782 25.4520775705 10.4907386454  35.4708024903 25.84592346845 9.4820875155  36.09696806875 25.9622830037 9.950871993450001  35.58881969975 25.33571803525 10.02195416745  34.9626541213 25.2193585 9.553169689500001  35.9789508593 26.4724884369 9.411005341499999  34.5170355566 17.6907109235 13.771354024  34.6739552915 17.98998063085 12.8663716865  35.0641218249 17.53708978465 13.4066186357  34.87133938005 18.12878055275 13.6351245152  35.2256432035 18.566850182 13.4988950064  35.2210415598 17.836359492 12.5016362982  35.02825911495 18.4280502601 12.7301421777  35.41842564835 17.9751594139 13.2703891269  35.6112080932 17.3834686458 13.0418832474  34.8308750264 18.2892503382 11.961389349  37.1942643803 23.3248105512 6.2002481103  37.8456081577 22.58044817455 6.9162714963  37.28672007785 22.6353263635 6.85746194475  37.72180363184999 23.39471342455 6.9471537242  37.75315246015 23.26993236225 6.259057661849999  38.31204054 23.2150541733 6.3178672134  38.2806917117 23.3398352356 7.00596327575  38.2493428834 23.4646162979 7.6940593381  37.8142593294 22.70522923685 7.60436755865  37.3791757754 21.9458421758 7.5146757792  34.102542851 24.8182767704 12.2707173735  33.8069706436 24.32915723225 11.269007107  33.1214738286 24.78301394995 11.49372245075  33.9050353296 24.0759043948 12.04152832925  34.004478165 25.07152960785 11.49819615125  33.2195385146 24.5297611125 12.266243673  33.906413479 25.3247824453 10.725674929  32.3365341782 24.2412454546 12.2617699725  33.0220309932 23.7873887369 12.03705462875  33.7075278082 23.3335320192 11.812339285  33.8029339404 19.3791354919 14.7313460634  33.65505077165 19.3741213013 13.5291019929  33.99856487045 18.66093040015 14.16503343025  34.1615265305 19.21265655695 14.4301140256  33.63997228035 18.8274093351 14.46626546805  33.29645818155 19.54060023625 13.8303340307  33.4770106203 18.2756831783 14.2011848727  33.1334965215 18.98887407945 13.56525343535  34.5201191206 19.046177622 14.1288819878  32.7899824227 19.7020649806 12.929321998  32.6067891525 22.0787607419 10.7678472859  32.47739503795 21.6696967564 11.794506601  32.3284968742 22.33550192635 11.96589660625  33.08669625715 22.24426779105 11.9415200478  33.5666033618 22.4097748402 13.1151928097  32.9573021426 21.83520380555 12.9681793629  32.80840397885 22.5010089755 13.13956936815  32.0502045959 22.5922431108 13.1639459266  32.19910275965 21.92643794085 12.99255592135  32.3480009234 21.2606327709 12.8211659161  31.3217341341 20.3100940277 12.3035082599  32.17685701795 20.92143470335 11.9537912464  31.83486752875 20.7853633993 12.562337088  31.44779700665 20.98372154565 12.00159465865  31.6637236233 20.44616533175 11.6949624183  31.5738598792 21.6573490636 11.6996810574  31.9609304013 21.45899091725 12.26042348675  31.78978649585 21.1197928497 11.39304881705  32.0057131125 20.5822366358 11.0864165767  33.5752413531 19.2642381518 11.6975521348  34.50408297955 19.3922102187 11.62308176365  33.92581328635 19.55001703055 12.2914644653  34.27569087179999 20.04776545675 11.4496024445  34.9761403905 20.8312927617 11.2016527542  35.20453249825 20.17573752365 11.37513207335  34.62626280505 20.3335443355 12.043514775  34.2763852196 19.8357959093 12.8853767958  34.8546549128 19.67798909745 12.21699409415  35.432924606 19.5201822856 11.5486113925  31.3484539283 19.3366247841 12.8814262199  32.21536287745 19.52732982065 12.4014737486  32.0558582784 20.00607950415 12.61641512895  32.0692181755 19.51934488235 12.90537410895  31.49459863025 19.3446097224 12.37752585955  31.3350940312 19.8233594059 12.5924672399  31.48123873315 19.8313443442 12.08856687955  31.6407433322 19.3525946607 11.8736254992  38.0289437937 21.3526846944 10.1490138286  38.38352028795 21.4699841127 9.184824305500001  38.10073457345 20.98749280565 9.154255610450001  37.8673510887 21.6110952702 9.36624091915  38.54511299295 21.2115735369 9.967597214950001  37.5845653742 21.12860396315 9.3356722241  39.0612821922 21.0704623794 9.7861806013  37.1401869547 20.9045232319 8.5223306196  37.4229726692 21.38701453895 8.55289931465  37.7057583837 21.869505846 8.583468009700001  31.9735327634 22.7498288435 15.1158552047  32.64107445945 21.3785835278 14.9814315184  32.2086950001 21.49844964795 15.55337581005  32.3541713278 22.3156053191 15.60805461395  32.78655078715001 22.19573919895 15.0361103223  31.8280564357 21.93267317235 15.0611764008  31.682580108 21.1155175012 15.0064975969  32.7348098922 21.8813817947 16.1002540232  33.16718935155 21.76151567455 15.52830973155  33.5995688109 21.6416495544 14.9563654399  33.6318662849 20.0057601812 15.3717430277  34.1026199435 20.93301526625 14.91496617305  33.91287977090001 20.5158471022 14.3506882751  33.6157175479 20.8237048678 15.1640542338  34.1187686805 20.11507057965 15.12265496695  33.4259773753 20.40653670375 14.59977633585  34.6056710761 20.2243809781 14.8735669062  33.2200884657 20.8073132263 13.827809644  33.4098286383 21.22448139035 14.39208754195  37.0021988167 27.2256213111 10.216318375  36.8248001839 26.0429134434 9.71230037015  36.490574838 26.849054874 9.813661858250001  36.60859204745 26.3388494408 10.3535285102  37.3364241626 26.4194798805 10.1149568869  37.6706495085 25.6133384499 10.0135953988  36.94281739335 25.5327080102 10.2521670221  36.4315401409 22.3312581397 13.6131122118  35.76238699485 22.4299954805 12.6865945783  36.6348524402 22.0115485536 13.07897071535  36.6837535299 22.6315755528 13.08121065205  36.9359669189 22.9318929659 12.5493090923  35.96569929415 22.1102858944 12.15245308185  36.01460038385 22.7303128936 12.15469301855  36.8870658292 22.3118659667 12.5470691556  36.8381647395 21.6918389675 12.5448292189  35.0932338488 22.5287328213 11.7600769448  37.5104608295 24.3381993232 6.8020847008  37.25600322275 23.12237914105 7.406136106649999  37.87990185645 23.90140781055 7.248072019449999  37.35236260489999 23.8315049372 6.50116640555  37.41410144735 23.62907352705 7.7070544019  37.3177420652 22.9199477309 8.612024103  37.7835424743 23.1922820144 8.15304172055  36.156890636 22.46143151315 11.63070793405  37.02935608135 22.04298458625 12.0230840711  37.07825717105 22.66301158545 12.0253240078  37.2205474232 22.394130205 11.5013389233  36.1587951246 23.08914936215 11.68070140415  37.2224519118 23.021848054 11.5513323934  37.08016165965 23.29072943445 12.0753174779  37.2243564004 23.649565903 11.6013258635  32.7618013997 22.6287392187 5.9564995732  33.7178473228 22.7081481977 5.76369650585  33.14589039419999 22.95955426115 6.161038195650001  33.4098712491 22.62667224085 6.43207705745  34.0579410985 22.624605263 6.9076545417  34.1019363173 23.03896324015 5.9682351283  34.3659171722 22.70608121985 6.2392739901  33.7939602436 22.9574872833 6.6366156799  33.5299793887 23.2903693036 6.3655768181  34.6738932459 22.7875571767 5.5708934385  36.65185421195 25.76718053275 8.474498597850001  36.2342355082 26.0606081155 7.9869411086  36.10659318375 26.2665482762 8.69897322505  35.59844481475 25.63998330775 8.770055399050001  35.7394490374 17.7249432818 9.5967307603  35.38440704395 19.14472476315 9.157965415850001  36.32867997175 18.8216209303 9.597889840200001  35.60269125375 18.60860125825 9.85744846855  35.4659334701 19.4922592347 10.1181661768  33.2324080986 23.3344682305 16.2722038442  33.41598845475 22.48805889245 15.61428464205  33.78224565805 22.9166574815 16.28630751595  33.70341119035 23.12361338885 15.40959265515  34.1744142821 22.9127585472 14.5469814661  33.8869915465 22.2772040508 14.751673453  34.2532487498 22.70580263985 15.4236963269  34.3320832175 22.4988467325 16.3004111877  33.9658260142 22.07024814345 15.6283883138  31.3607889565 24.4294787538 13.2121122004  30.765668825 24.396
[...]
<PointData  Vectors="u"> 
<DataArray  type="Float64"  Name="u"  NumberOfComponents="3" format="ascii">3.8487321260634552e+01 -1.1070981730366412e+01 -2.8019134981434672e+00  2.8493896236527842e+01 -9.4145329668065028e+00 2.1915286620733432e+00  2.5943664701800543e+01 -9.7396715999243071e+00 4.5521921580597660e+00  3.0992005206212905e+01 -1.4613337609870255e+01 1.4300327636046529e+01  3.6133045196132166e+01 -9.7923283260939584e+00 -9.5780555274094876e+00  3.1225323460275682e+01 -1.0674186264575034e+01 -7.2455028204803398e+00  8.5093805229672611e+01 -7.9176276581031146e+00 -1.8008735985531512e+01  3.0775003806619981e+01 -1.6771572025417328e+01 -3.2407728378588101e+00  3.7047947413644387e+01 -2.4976586222900799e+01 1.5606287087727582e+01  4.2810059455703062e+01 -1.7413610915668457e+01 1.4554881378032852e-01  9.4129284030468511e+01 -2.4287559247097246e+01 -3.4456000739399137e+01  5.1631341308421582e+01 -2.6605788761559328e+01 -2.5785224522740236e+01  9.7089866636733390e+01 -2.5975679188076157e+01 -4.7724916813849504e+01  3.2318517301463871e+01 -3.9284298876471937e+01 -1.9369260008748469e+01  2.7059857742721039e+01 -8.5747692457518845e+00 6.7845613234388127e+00  2.6733461293170169e+01 -1.8778805985850529e+01 -1.7390321406882887e+01  9.2258614234459955e+01 -1.1098778798201131e+01 -2.3849347885127610e+01  4.7649817584753912e+01 -3.7604425093206899e+01 -4.0472592902046351e+01  1.0152680793247916e+02 -1.7545555141590321e+00 -4.9614184056805954e+01  7.4328368349002034e+01 -1.4906336583877346e+01 -4.2232079873367724e+01  9.3130789778198974e+01 2.1529329839015769e+01 -5.3023881052045070e+01  2.7938177453954044e+01 5.2228839124109392e+00 -8.7535264700476976e+00  5.2659322791352388e+01 -3.3999116759354604e+00 -3.2950072159430867e+01  3.2731470565562297e+01 2.6490366393720880e+01 -5.8463509064541178e+01  8.6851866132696244e+01 3.4879233004062744e+00 -3.6226477606858971e+01  3.4875247539481869e+01 2.2594584472862223e+01 -3.8344578921473658e+00  4.1451766184350511e+01 3.6806932061255591e+00 -7.9628097456122138e+00  2.6219486587911973e+01 4.5019706400132158e+00 4.0085014997850426e+00  2.1314792197388989e+01 3.9526017183015685e+00 -2.7294836665465326e+01  3.4141349633041997e+01 -3.3159205677606751e+00 -8.4095418971320584e+00  3.3274416497845138e+01 -1.1053055247492521e+01 -2.7190319461183250e+01  1.8545770596588511e+01 1.0862750046478880e+01 -1.3123015844932988e+01  1.5964195763071409e+01 2.4662837359578671e+01 -1.9663924840456768e+00  1.7594296542561473e+01 6.3048525947689402e+00 1.7968013159691079e+00  2.2602610859267738e+01 7.9731831719865092e+00 2.3219105211981752e+00  2.7413567112765776e+01 -1.1186244221988211e+01 4.7255276581146131e+00  3.5245307881827557e+01 -1.5154155584423373e+01 5.2311698154974291e+00  2.0677348058356717e+01 -1.3662673323296463e+01 1.0049191639508507e+01  6.3063855712975119e+01 -3.1171571494180230e+00 -5.2684473438126233e+01  4.9017322322371946e+01 -1.4712627809143118e+01 -2.8949222629051629e+01  6.4427800088910743e+01 1.6085894441944883e+00 -3.6105147382849189e+01  6.6823292269308041e+01 -2.7496191482690463e+01 -3.5913826449316716e+01  5.4421027718957681e+01 1.7024918075532348e+01 -4.2420843710966743e+01  1.1224744181746846e+02 -2.8627597954972472e+01 -3.2839307590953545e+01  2.1103066885296009e+01 -1.7888832068195264e+00 -3.3509617315691576e-01  1.9587531535112316e+01 -2.2005197079080108e+00 3.7341602821620190e-01  1.7362164518177391e+01 -2.6379158936477971e+00 2.5738551316133501e-01  1.8528371227031847e+01 -1.3550230317858438e+00 -1.8989060654080674e+00  1.5567355521343798e+01 -6.8159180967948141e-01 -2.8256264408084264e+00  1.6507412329581690e+01 -3.1581941199706378e+00 9.4205716216914492e-01  1.7269418304491346e+01 -1.8396555474363423e+00 -7.2231758542339619e-01  1.5342073528388246e+01 -2.2132941204342296e+00 -7.7860095238143279e-01  1.4529096944249908e+01 -3.8303062415822011e+00 4.9767280665012947e-01  1.8449365764689894e+01 -2.7915641667208706e+00 1.0708870320332993e+00  5.7071737443252548e+00 9.6000698708989471e+00 -2.7419366116801864e+00  6.8472899688061117e+00 6.2085890346687345e+00 -5.5376144027368239e+00  7.8550092067919000e+00 9.9373175098149780e+00 -4.9311347056267536e+00  6.5011395304279045e+00 5.7495508387217509e+00 -2.9018920517782028e+00  6.3344800836940456e+00 3.9875805268227684e+00 -3.7161209944092399e+00  7.6997694890774468e+00 5.6546764503413476e+00 -7.2218039703489705e+00  6.8008975503721150e+00 4.2951937854121800e+00 -5.7866377021213316e+00  7.1718873673163825e+00 5.8093561247254337e+00 -3.7380532142481320e+00  7.5572654955616869e+00 8.2992639941316106e+00 -7.5740754876881127e+00  7.5194933515252869e+00 3.9547851145335038e+00 -7.3722083624719161e+00  2.1474814373304525e+01 -1.1768533462105781e+00 7.5420562874742973e+00  2.0485709905478625e+01 -1.1375354380710159e+00 5.9702447889379187e+00  1.9610401847219293e+01 -1.6505151448336803e+00 5.3687624644925611e+00  2.1835577485612646e+01 2.0735193982191377e-01 4.3417665282489279e+00  2.0283777623254572e+01 2.1235475986288042e+00 7.5097938482761766e+00  1.9064334015871260e+01 3.0472801117650268e+00 1.0674457711974728e+01  2.2478298251325938e+01 7.7820442161926728e-01 5.5664356172553688e+00  2.4102421258867750e+01 -3.5219680155675903e-01 3.5794509298966175e+00  2.1700414178552933e+01 -7.6404838842339196e-01 3.2481814171237393e+00  1.9872237837217440e+01 -1.3042051083996080e+00 2.7530133908242238e+00  1.1765235577597569e+01 3.1178244464303417e-01 9.2358193409217282e-01  1.2412090555931146e+01 -1.1538652255522688e+00 -1.4036948577671664e+00  1.2774703367483408e+01 -1.1641882767384295e+00 -1.7737716909407344e-01  1.1992332067829881e+01 5.2575342384532731e-01 -7.0177724668175312e-01  1.2377310665574047e+01 -1.1948991656858761e+00 1.2640499780067668e-01  1.2782938378147753e+01 5.2980713397968837e-01 7.9172159800108211e-01  1.2997641051556169e+01 -2.8548581159028932e+00 1.1654870495878791e-01  1.4163139372679328e+01 1.2103847323895491e+00 -1.4902403621640856e-01  1.3374140340393058e+01 8.5453983662496058e-01 -1.1945210947733285e+00  1.2062924483025018e+01 4.1295315810853178e-01 -2.4226679069653652e+00  5.0504892334709401e+00 1.3985490794779600e+00 -7.6023484965023624e-01  6.8984700942579256e+00 1.0091595574550245e+00 -2.5435412940103772e+00  5.2810358093224377e+00 2.6276043892247714e+00 -1.1271867647435587e+00  5.4868677036617859e+00 1.6989838861219193e+00 -1.6005528532467570e+00  3.9974380790056796e+00 1.1306061766591919e+00 -5.6309631077370459e-01  7.6821721533651912e+00 -6.5605455376711330e-01 -1.5075415954126485e+00  3.3802211696952997e+00 4.2984220291536523e+00 4.2145262627696861e-01  5.6765613306589531e+00 1.4354894237093510e-01 -1.9458106296859847e+00  5.2774759143219381e+00 2.3638121502818867e+00 -2.3059118665485951e+00  8.9493825295319258e+00 -2.9456477555935598e+00 -4.6486282669262353e+00  1.0913141359019860e+01 -3.7074795761821004e+00 -6.8879814170607920e+00  1.2945944700208500e+01 -1.7589163630621441e+00 -7.9376784543221639e+00  1.6158588898176497e+01 2.3327372144295613e-01 -6.5947291917004796e+00  1.2918480774401269e+01 -2.7605151309293103e-02 -4.8994821347648996e+00  1.2529833866686277e+01 2.6273130830336102e+00 -1.0952146458477023e+00  1.6167467317110784e+01 1.7691930499542641e+00 -3.1117633974375880e+00  1.6328816818280703e+01 3.8695888708100243e+00 -1.2778043183941949e+00  1.9483828651948055e+01 7.5962064916288048e+00 -1.4085506034604027e+00  2.1554710841496764e+01 3.3850131232150669e+00 -6.8293630296483032e+00  2.2383544012307254e+01 -2.3101644063296751e+00 -9.6081467062253267e+00  9.2593144891480925e+00 -1.2554557011427846e+01 -1.6808303751487319e+01  1.3469800212841806e+01 -3.9763455622573924e+00 -1.1763335745653345e+01  1.4799511889083075e+01 -1.0567059346045395e+01 -1.5167413627377270e+01  4.8192639311176260e+00 -8.8781179030499544e+00 -1.7198790301842873e+01  7.8255909681874014e+00 -6.3611562795323620e+00 -1.2016410276794439e+01  1.2815148067256283e+01 -5.9742258464980171e+00 -1.3032514568435280e+01  1.8411835046441450e+01 -2.9507360004761520e+00 -1.3830330459248804e+01  8.7564812060235599e+00 -5.3547285935255022e+00 -1.1095284638520367e+01  6.1358412807807010e+00 -4.4896651039433895e+00 -9.4115377141777845e+00  7.0790166947425801e+00 8.1946482084687799e-01 -6.1710106300503007e+00  7.8490046761994794e+00 1.6697714739313192e+00 -6.6095265390455049e+00  7.6648424248975182e+00 1.0919589617117238e+00 -5.3991260091720426e+00  8.3544180436421662e+00 8.6592004927409427e-01 -6.3811867482231319e+00  9.1881760942505455e+00 9.7474032039073755e-01 -6.8427869275003044e+00  8.4869414505341556e+00 1.3619643688711234e+00 -7.1679987725384722e+00  8.1076693342797412e+00 1.2469469403286977e+00 -5.7224793668558140e+00  7.5857200766179993e+00 1.3094367652379679e+00 -4.4071981158339142e+00  7.3340348454953510e+00 1.8801714138096102e+00 -5.9624121522003906e+00  7.7925127404765115e+00 1.7483601997910829e+00 -7.6709010737003993e+00  4.1934808583363887e+00 -9.1350640867415063e+00 -5.6717271533792628e+00  6.8863807655194265e+00 -4.5083436924784541e+00 -6.8246226607691973e+00  1.1304282092448345e+01 -9.3335588519609125e+00 -9.4165184434045468e+00  7.6188953547237031e+00 -7.0326898597667773e+00 -5.6146392304582466e+00  3.3316965430864487e+00 -6.0373834486611910e+00 -7.9325189602911470e+00  4.0432007748443102e+00 -1.1481107234548270e+01 -9.2826362845150978e+00  4.8754122855371680e+00 -7.5962658932009575e+00 -9.3490884424574805e+00  3.5196238742925541e+00 -4.8376242295645122e+00 -8.1892975301055628e+00  2.4421244401497798e+01 1.0676993426537036e+00 -9.3991878481412403e+00  2.4953489750459973e+01 1.2772166238523830e-01 -4.3545927263924025e+00  2.3381917039248144e+01 2.4227943020599940e-01 -4.8941556623955398e+00  2.2045429172432097e+01 3.6825761947052937e-01 -5.3973400034469012e+00  2.4558661651530127e+01 1.0903168721026442e+00 -6.5131752290336822e+00  2.0601179772650056e+01 2.8285143493217507e-01 -5.4454385429551602e+00  2.2358234200090799e+01 1.5367559123306875e+00 -8.6623857544047613e+00  1.8560603418857241e+01 9.9614077971006590e-02 -1.8199395104645513e+00  1.9845316844178722e+01 -1.9635034456578651e-01 -1.5756249605514041e+00  2.1725315529669469e+01 -2.4162434855788506e-01 -1.6213701390691009e+00  1.3418161793138887e+01 7.3357313913531490e+00 1.2489031183218376e+01  1.3393440056863465e+01 2.9958743833394581e+00 7.4773043588396657e+00  1.0407341818842774e+01 3.9400305288894280e+00 1.0308886335589827e+01  9.7473178391585567e+00 5.5545670541597332e+00 9.8755542415306952e+00  1.2179278972237972e+01 5.2794793326411558e+00 7.4937597290463867e+00  1.6383976722298861e+01 6.5955660745591222e+00 1.8269240745292198e+01  1.9582273865632903e+01 -2.2801522664205165e+00 2.0985339257992955e+01  7.4210531451702710e+00 4.4286158792830275e+00 7.6714195230266586e+00  8.6123195212501447e+00 4.5645684325463529e+00 6.0000724183909391e+00  9.0184029843586604e+00 4.1271974969316370e+00 3.5868204391520586e+00  5.1163091597534365e+00 2.9097296965765165e+00 1.9346597728089447e+00  6.3451670902961075e+00 3.6774818432372016e+00 1.0579651669629977e+00  7.8413289445192378e+00 2.0265267588442635e+00 -3.0501398497800608e-01  7.3954750932357349e+00 3.1234193777748698e+00 2.8688172501404101e+00  5.1210091650101672e+00 3.3336985484735462e+00 4.8629884537964951e-01  8.8725179028194550e+00 1.1882913793432490e+00 1.4536206434924233e+00  3.8234567654193543e+00 3.0446944349520586e+00 -1.4176984818500071e+00  1.2628133974426930e+01 -3.5207890596565872e-01 -6.4852055394095409e-01  1.1325123007423141e+01 2.2826219309732760e+00 2.1522413225731540e+00  2.1215022610788655e+01 -1.0772072134436874e+00 -1.0208154113871548e+00  1.9604442576423857e+01 -1.2196662887542640e+00 -1.5539289199937909e+00  1.9660044156925558e+01 -1.9738050423575155e+00 -2.0023265670150028e-02  1.8353835152747038e+01 -5.1231789928936533e-01 -1.6323187173988229e+00  2.0859354132045116e+01 1.3609049383776928e-01 -2.4875463514869387e+00  2.1577198509321519e+01 6.4919331955843609e-02 -5.0111023569318549e+00  1.8106269360677604e+01 -2.2660144034537999e-01 -4.2528713939547345e+00  2.6796071344409089e+00 4.4875259700169243e+00 -2.5419428775800785e+00  6.6584131201232610e+00 2.8797873118701980e+00 -4.1231362815956327e+00  2.8866284813174126e+00 3.1315599029322612e+00 -5.2631220425303757e+00  2.5682960936933843e+00 3.6119648107311098e+00 -4.5013278405547652e+00  2.4528027376757859e+00 2.9609704767422222e+00 -7.1540841006865143e+00  7.1292021593339880e+00 2.3798881302800496e+00 -6.4472704769482885e+00  7.4286127098140105e+00 2.3889893192811624e+00 -5.6301905511906787e+00  2.9741428839783679e+00 3.0908279200159052e+00 -7.4568222702298081e+00  2.8775996089356704e+00 3.0571010166810137e+00 -7.1850625643470103e+00  9.6676125543183655e+00 1.2770017654782904e+00 -4.7815758201422200e+00  2.4122539101244641e+01 -9.8433626963641607e-01 4.0479201963571869e+00  2.0188874169198645e+01 -1.4394578304600534e+00 3.8807611368587080e+00  2.3320577010546661e+01 -4.6134970003389641e-01 3.2436586286791234e+00  2.3760770016987646e+01 -3.1155647028511668e-01 4.6947820988534410e+00  2.1356241150538374e+01 -1.3619290505488124e+00 2.7909046914588953e+00  2.0155884237346719e+01 -9.2407051531060502e-01 -8.1128534311157641e-01  2.2644859167479954e+01 -7.9866405660597595e-01 1.0703368799300248e+00  8.7047923929498694e+00 2.0990857879267049e+00 -7.9165560510095103e+00  3.2055133049555904e+00 3.4388256220679083e+00 -1.0587814828049350e+01  3.5833890509323010e+00 2.7336035216370203e+00 -1.1853007872684172e+01  1.0986526592941921e+01 4.5807651368251152e+00 -1.5334926794542660e+01  8.6724484713277974e+00 1.6687297032260959e+00 -6.9504909448605581e+00  1.2160567141416305e+01 2.7459605339530277e+00 -1.6191106142539390e+01  2.9708677369198275e+00 2.7669087152142469e+00 -1.1729494817359257e+01  1.2078255882238819e+01 1.8570511589825396e+00 -1.4239869563139420e+01  1.8713610181966185e+01 -6.9832304505871088e+00 1.3071492703843871e+01  1.7705445640076178e+01 -6.0786313543576584e+00 1.0801479640119991e+01  1.9289076882686569e+01 -7.9086947768132880e+00 1.2201244465051978e+01  1.6492194898858248e+01 -5.3987714435494718e+00 1.3176813600292899e+01  1.3415726281290306e+01 -4.3661746279732636e+00 1.3369286479764204e+01  1.6852866264903728e+01 -6.1999808248127870e+00 1.0825797016285822e+01  1.5895662279598909e+01 -5.3594926230934297e+00 1.0490296034704020e+01  1.5406444657195783e+01 -4.6608121802485112e+00 1.4694889712039251e+01  1.8197224454730812e+01 -6.8948258600254624e+00 1.3003781975524694e+01  1.7177797392982924e+01 -6.1525647614855128e+00 8.9601387375386903e+00  2.0745497789244762e+01 -2.5743865447772816e+00 1.8708712909892624e+00  2.0523145956847756e+01 -3.2798231310757555e+00 3.9286121228660793e+00  1.9411257171687328e+01 -3.1092557317035285e+00 2.2813321450819419e+00  1.7272523223541977e+01 -3.6380494791123712e+00 2.2493116632318899e+00  1.1755072089601676e+01 2.3146700225254411e+00 -6.1957575840479491e+00  1.0365810450704100e+01 1.3286935440372698e+00 -4.3426524137113702e+00  1.4186824408630610e+01 1.5390769265353312e+00 -6.1431725752792552e+00  1.0932638899777439e+01 1.7696668835553084e+00 -6.8507589020913846e+00  1.0213917137565353e+01 1.3233097214301626e+00 -7.3817627831605472e+00  7.4855328474922320e+00 1.0454291989706700e+01 8.3483705108024342e+00  8.4421407484276418e+00 6.1650422366739361e+00 5.4664369733943303e+00  7.7344439662604501e+00 9.4927019285069374e+00 4.5398277320149241e+00  8.5484603809110382e+00 7.0174428522867487e+00 6.2855648545542655e+00  8.7805461595074537e+00 5.3708665743966693e+00 3.4439068466447109e+00  9.0268148025575616e+00 5.1770753696998542e+00 3.3838501357455910e+00  7.3414701860702056e+00 7.2798940961705245e+00 4.4442398587159611e+00  5.9256580969258605e+00 9.1446196774936634e+00 3.8537718747901186e+00  6.8572206279340868e+00 6.0972064911524830e+00 3.8596275232263504e+00  1.8661158076334925e+01 2.3324138908527488e+00 3.0983268677031441e+00  2.3479958460719224e+01 3.8936040285348122e-01 -2.8567667871505260e+00  1.6907034914340205e+01 2.0990945145248463e+00 1.6366174445946877e+00  1.8677360006484736e+01 1.0615718398259963e+00 7.1990881647205383e+00  1.6440040385317108e+01 4.5790913939875795e+00 9.2459807865549468e+00  1.5508956904357897e+01 2.9645340902390194e+00 3.3133232822151411e+00  1.5190627536228865e+01 1.1262482859275320e+00 -9.8316345237753011e-01  1.6107032333421454e+01 5.2801878960639870e-01 -2.8297736107841547e+00  2.0126988586171070e+01 -2.3060417909875679e+00 5.7882751371532910e+00  1.8842417503433484e+01 -3.2301332898716644e+00 6.5759849258674485e+00  1.7421473471313639e+01 -2.0318319153502982e+00 2.7986420127649043e+00  1.5969435315719938e+01 -3.4524823838933156e+00 6.2287142485278624e+00  1.6771932038026165e+01 1.6586074239807316e+00 1.8339467449610110e+00  2.0670538725371859e+01 2.2900638788834811e+00 -1.1995857210117506e+00  1.9284042520038419e+01 3.3468668299373645e+00 7.5097722666295121e+00  4.2019573527573613e+00 2.4542570935516168e+00 -4.6140296584402689e+00  1.1395736139705612e+01 1.1585756971986336e+00 -3.0241094528260013e+00  8.2030354533810197e+00 1.2927845414492043e+00 4.3025306244215022e-01  7.1452877557544596e+00 1.5855455600348587e+00 -1.1552146842053961e+00  8.6541658645206851e+00 1.4689908587087004e+00 -4.6915330726868554e+00  1.2338720379979733e+01 8.0206799666285589e-01 -5.9131525137804042e+00  1.2623736219939316e+01 5.0831410958213741e-01 -2.0192371762254808e+00  1.3188359001509975e+01 1.3480803132154165e-01 1.6234932335306032e+00  6.0907145667742411e+00 3.2253533508186210e+00 -3.4597724371650402e+00  3.3957754795813009e+00 3.4447573861687109e+00 -3.5169734689678256e+00  3.9414507519749531e+00 2.8549068416435133e+00 -4.5248982617294198e+00  6.1254532053588280e+00 2.5593203326407692e+00 -5.2811040655334232e+00  6.1947932042898497e+00 2.6283705078038730e+00 -4.2048594181547019e+00  3.6780538319588070e+00 2.7726995202628930e+00 -5.5133503835603390e+00  8.2739381920268666e+00 1.8994236430566123e+00 -3.9387710581633066e+00  2.1023632275137057e+01 4.1816120325754760e+00 -1.5998445989037327e+01  2.1504948797686243e+01 1.5144802144417535e-01 -5.0655464060880533e+00  2.4071813000645928e+01 5.1414021968340107e-01 -6.7051205901957900e+00  2.4209917329662609e+01 -1.5952827793585328e-01 -7.5198552219137067e+00  2.5676764693030506e+01 1.5343017216442607e+00 -1.1548976277595751e+01  1.8938594200726588e+01 1.3368063881929062e+00 -9.5235187876636864e+00  2.0585535199755597e+01 8.8712653362674332e-01 -8.3581742582011600e+00  1.7554329153082623e+01 2.4106094155795826e-01 -5.5276559371954566e+00  2.5738655806431083e+01 -3.4431284098910685e-02 -5.4711154303794718e+00  3.7748303622873984e+00 -8.4213786442435767e-01 -3.8585047592857502e+00  7.3684763347585074e+00 -9.0194622791275847e-01 -5.4441595271913625e+00  8.7833564140182343e+00 -8.8571292686148873e-01 -3.7441284353774571e+00  6.8013354073236094e+00 -1.1921304488147337e+00 -3.1753350588818572e+00  5.7123651389977086e+00 -9.2438375680485618e-01 -5.1332529906956310e+00  5.1486084016864879e+00 1.4567057989735016e-01 -3.4805325266458063e+00  7.6756751897519759e+00 -1.6961011179193517e+00 -5.0516859223914761e+00  8.1476426003322295e+00 -9.2291619129226654e-01 -4.4699669585824999e+00  7.0409072590269046e+00 -4.9134561329452009e-01 -5.3023152939297615e+00  6.4370885328966398e+00 -5.5263275186746119e-01 -6.0490654908088199e+00  1.3333590760984938e+01 1.2844421037981371e+00 -4.1639478492659929e+00  1.2521333563935336e+01 -7.5727051952003288e-01 -4.4066517213733016e+00  1.4390965366090926e+01 1.9123402045489355e+00 -2.0006978601805780e+00  1.2328062797019300e+01 1.7985837107598912e+00 -1.9387850290653659e+00  1.0453584437007596e+01 1.8300742933746832e+00 -1.4911537614989450e+00  9.9750943691919041e+00 3.0019871370415485e+00 -5.9941259299856597e-01  1.0328885400502855e+01 1.6898979573758917e+00 -2.8597341534393044e+00  8.7084370253911363e+00 2.2369686323155822e+00 -2.8750035943253116e+00  1.0922083978930271e+01 7.4587020243133884e-01 -3.5318545782673714e+00  7.9715847076327133e+00 3.5456496451517383e+00 -5.0397595558301422e-01  8.8715301593694367e+00 1.7447511295716556e+00 -4.39406651851