<?xml version="1.0"?>
<VTKFile type="UnstructuredGrid"  version="0.1"  >
<UnstructuredGrid>
<Piece  NumberOfPoints="5550" NumberOfCells="24970">
<Points>
<DataArray  type="Float64"  NumberOfComponents="3"  format="ascii">29.1216097876 32.5441188961 9.7031448367  28.62984097425 32.90823095330001 10.3096744032  28.86254123315 33.06173058435 9.494456197  28.5089240131 32.57875188885 9.522835852050001  28.6034726787 33.5793422726 9.2857675573  28.5635292796 31.357243121 9.617351388199999  28.35080072025 32.31479306575 10.26677767895  28.8425695336 31.95068100855 9.660248112449999  28.2298837591 31.9853140013 9.4799391278  32.6486262733 24.3520748528 15.102295863  33.4086974401 24.6320563444 14.9362769135  33.41152027770001 23.6324167 14.82463866455  33.63458442 24.1345045077 15.4298341636  34.6205425667 23.9169341626 15.7573724642  34.1715914445 23.9123981916 14.65861971505  34.3946555868 24.4144859993 15.2638152141  34.39747842440001 23.4148463549 15.15217696515  34.1687686069 24.912037836 14.770257964  36.7683464601 23.5607326158 13.6341381829  35.9818559053 23.6333515853 12.95458451385  36.9117004358 23.5623471971 12.6038696005  36.8278902064 23.87676702205 13.1462841458  36.8874339527 24.1928014283 12.6584301087  34.94703239935 24.21737533085 14.8186087919  35.273522232 24.5178164991 13.8798451196  34.72114541945 24.71492716755 14.3250515418  34.72396825705 23.71528752315 14.21341329285  34.1744142821 22.9127585472 14.5469814661  35.6491063487 22.2083427345 14.5860602659  35.63838283815 23.1635902313 13.9990430824  36.31601397964999 22.79226843 14.1802297288  35.92479708355 22.7308107274 14.66670375585  36.2004878184 23.2532787203 14.7473472458  36.9339499719 25.6026562348 12.8106506616  35.71288413895 25.64798836185 13.11008036925  36.29809935759999 25.76554471765 12.32896391  36.21638100245 26.1952076873 13.0863454583  35.498812033 26.7877591398 13.362040255  35.07703352465 25.8108768447 12.62839361765  34.9953151695 26.24053981435 13.38577516595  35.58053038815 26.35809617015 12.6046587067  35.6622487433 25.9284332005 11.8472771584  34.491818306 25.6933204889 13.4095100769  34.102542851 24.8182767704 12.2707173735  33.6895239873 25.6168116257 13.04721846015  33.93566696475 24.8566878838 13.4858452822  34.2971805785 25.25579862965 12.8401137252  33.4948862598 25.17928976645 12.47782210845  33.13337264605 24.7801790206 13.12355366545  33.74102923725 24.41916602455 12.9164489305  33.3795156235 24.0200552787 13.5621804875  32.8872296686 25.5403027625 12.6849268434  30.9746278596 27.4036998649 12.8732921215  31.99872938175 27.13303412855 12.82772524065  31.4292047912 27.1328185045 12.5099035459  31.32598586335 26.88497365365 13.0929875346  31.54415245015 27.40391548895 13.19111381625  32.1136770407 27.404131113 13.508935511  31.8955104539 26.8851892777 13.41080922935  31.6773438671 26.3662474424 13.3126829477  31.78056279495 26.61409229325 12.729598959  31.8837817228 26.8619371441 12.1465149703  32.3855056957 26.2011199533 12.41572090685  32.28228676785 25.95327510245 12.99880489555  32.53824870225 26.64351584235 12.97599050365  33.3991535374 26.9207842423 12.6392980596  33.143191603 26.2305435024 12.6621124515  32.6414676301 26.8913606932 12.39290651495  31.1959330331 26.5666516572 12.551232333  31.39193511695 26.1608249056 12.41515606615  34.6880325415 24.66804663475 13.07528124655  34.882670269 25.105568494 13.64467759825  34.32651892775 24.2689358889 13.72101280355  33.73340559085 26.1956713791 12.26679640935  34.34106218205 25.83465838305 12.0596916744  33.7508481942 25.86953050635 12.45500771655  33.98936752525 26.885912119 12.24398201745  34.5795815131 26.8510399957 11.8486659753  32.6706773883 26.201074607 11.3768861384  32.77895352845 25.87068868475 12.0309064909  33.03491546284999 26.56092942465 12.008092099  32.27722955555 26.53150587555 11.76170055435  33.9454859217 26.3070523656 13.02440406825  32.677556625 26.6831229793 14.0763639377  33.5846874655 26.1882217341 13.7429370073  32.7823931468 26.1117128709 13.38064539055  33.0383550812 26.8019536108 13.35783099865  35.3768003566 22.5123727713 15.579650067  35.18745105025 23.08301863375 14.64716435595  34.99867146165001 23.21465346695 15.6685112656  35.41051519255 23.58510644145 15.252359855  35.7886440875 22.8828257458 15.1634986564  32.75641528905 27.16245767765 13.0741167853  32.17745024605 26.52468521085 13.6945234427  32.39561683285 27.04362704615 13.79264972435  32.8206035014 24.7073719212 13.7863838668  33.2152299931 25.15336319985 14.39042260505  33.0140709484 24.18606506575 14.33223817525  32.4551588263 24.87338170825 14.55644155455  32.2616913793 25.3946885637 14.0105872461  33.7741421152 24.46604655735 14.16621922575  35.1059065107 22.7599005714 16.7356006196  34.7189948641 22.62937365195 16.51800590365  34.96098287425 22.244349974 16.60335184495  34.74812682255001 22.40013438795 16.9334753656  34.3320832175 22.4988467325 16.3004111877  33.2324080986 23.3344682305 16.2722038442  33.78224565805 22.9166574815 16.28630751595  33.70341119035 23.12361338885 15.40959265515  33.92647533265 23.62570119655 16.0147881542  34.2532487498 22.70580263985 15.4236963269  34.4763128921 23.20789044755 16.02889182595  34.85444178705 22.5056097519 15.94003062735  35.0964297972 22.12058607395 16.02537656865  35.24135343365 22.63613667135 16.1576253433  34.53569990955 26.2721802423 12.6290880261  34.45044018855 27.12383244605 12.6600483305  33.8602262007 27.15870456935 13.05536437265  34.321298864 27.3966248964 13.4714306857  34.406558585 26.54497269265 13.4404703813  35.7370050252 23.8855476097 14.3135961827  36.3692706343 26.55123801485 12.66335998555  37.08683960375 25.95868656235 12.38766518885  37.2397292356 26.3147168899 11.9646797161  36.45098898945 26.1215750452 11.90597843725  33.16467796355 27.42242283605 13.5292484668  32.5219397152 27.6640962714 13.9640671925  32.9302023897 27.9240614298 14.419198874  32.80387950735 27.30359220455 14.24778140585  37.13436081995 25.68257193835 11.84994271965  36.9814711881 25.3265416108 12.2729281924  37.0289924043 25.0504269868 11.7352057232  35.46788548764999 25.2231248498 12.863561139  36.10373610195 25.06023636695 13.3452478906  34.3228214872 23.0399811682 17.0510303857  34.32745235235 22.76941395035 16.6757207867  34.71436399895001 22.8999408698 16.89331550265  34.3565843108 22.54017468635 17.09119024865  33.37675484265 25.5440045263 13.7100486615  34.33029345645 25.30267916245 14.08988402045  36.48441713925 23.40700566805 14.19074271435  35.922312159 23.31731717905 13.44243855095  36.02093434605 24.03927455745 13.75699165125  33.6251294507 26.52605730135 11.61277605685  33.97472956885 22.6899195851 16.9644293651  33.7776147929 23.18722469935 16.66161711495  33.4994277445 27.03987393785 13.7738973117  34.47168202695001 23.4784576654 16.40420142495  36.08047809235 24.3553089637 13.26913761415  34.88239579715 25.37335498545 12.05899726595  35.1209151282 26.3897365981 11.84797156685  34.8632245387 23.338417367 16.2464865419  32.94051718595 23.84327154165 15.6872498536  31.85906492545 25.7915036611 12.4737495288  32.46962400215 26.0389057715 14.0434755919  31.9695176232 25.88046800305 13.6616350969  32.57446052394999 25.4674956631 13.34775704475  34.9100554485 27.0921920181 13.41673547035  35.03919677305 26.81939956775 12.60535311515  36.274841348 25.0606173144 12.25285363355  36.9106919623 24.89772883155 12.73454038515  36.9582131785 24.62161420755 12.19681791595  33.62575062685 27.6603431631 13.94531477985  31.4024936499 29.9229804134 12.8903672515  31.8409665074 29.47719290435 12.32159607325  32.42292232695 29.5508000236 12.94735103275  32.3885756797 30.11979342185 12.30491254395  33.3746577095 30.3166064303 11.7194578364  32.8270485372 29.6740059128 11.7361413657  33.40900435675 29.74761303205 12.3618963252  33.443351004 29.1786196338 13.004334814  32.86139518445 29.10501251455 12.3785798545  32.2794393649 29.0314053953 11.752824895  34.3411526781 33.3799464684 11.4395579198  33.9020671911 32.67214067995 10.5669392548  33.47101915295 32.93740112905 10.6559250386  33.6365197868 32.6899732927 10.96838618215  34.44119944854999 33.609541692 10.7256498489  34.6067000824 33.36211385565 11.03811099245  34.17565204425 33.62737430475 11.12709677625  34.0101514104 33.8748021411 10.8146356327  34.8722474867 33.3442812429 10.6366640651  32.9318868955 32.000000117 10.4972144445  30.2953330259 32.3157618707 9.532624721299999  31.0852561592 31.4254709476 9.950487377849999  30.953302278 32.15025694095 9.923438891450001  30.81229714375 32.06560910665 9.277385197699999  30.4272869071 31.59097587735 9.5596732077  31.3292612616 31.8154563426 9.022145674100001  31.47026639585 31.9001041769 9.668199367850001  31.6112715301 31.9847520112 10.3142530616  32.8265822264 34.1631385417 10.7939235385  32.92325059795 33.66254153475 9.79392430425  33.09926940619999 33.4273632109 10.18868100675  32.5074848142 33.5715314112 10.17832495965  33.24234801015 34.25414866525 10.4095228831  33.4183668184 34.0189703414 10.8042795856  33.83413260215 34.10998046495 10.4198789302  33.6581137939 34.3451587888 10.0251222277  32.188387402 32.9799242807 9.562726380799999  35.0769400235 31.0668269325 10.6883694169  34.43507692385 30.31273761775 10.473598395  35.08204772825 30.6625217538 10.2395257712  35.1472960011 30.4884794156 10.71353372645  35.2176519787 29.9101318987 10.738698036  33.03632659455 29.29502684915 11.00582613405  33.51775538305 29.6372211033 11.6195402044  33.58393576685 29.93762736665 10.98914260475  33.7932138242 29.558648303 10.2588273731  33.7270334404 29.25824203965 10.88922497275  32.97014621075 28.9946205858 11.6362237337  33.6608530566 28.9578357763 11.5196225724  35.4204394324 30.8861312043 11.6004709407  35.794352894 29.82636235215 12.0916182609  36.0866172195 30.18626473615 12.200335997  35.3277992872 30.24614050205 12.14190220585  35.8869930392 30.4663530544 11.55018699575  36.353546646 30.0465749045 11.4999030508  36.5531708263 29.76648658625 12.15005205205  35.235159142 29.6061497998 12.683333471  35.99397707430001 29.5462740339 
[...]
<PointData  Vectors="u"> 
<DataArray  type="Float64"  Name="u"  NumberOfComponents="3" format="ascii">2.0657661235974942e+01 2.7463849028316384e-01 6.7217791098700508e-01  1.6033693599331485e+01 4.0322837994574739e-01 -3.8243385649670440e-02  1.9003681210022897e+01 2.4260523862025236e+00 6.1791133019034084e-01  1.6888659024055372e+01 3.2862042982910622e+00 4.5540188197673048e+00  1.5585789200534192e+01 3.1099036354868583e+00 -2.1059005292148444e-01  1.8759814195501086e+01 -2.1806504101119288e+00 7.7268270745409797e+00  1.7152510326877195e+01 9.2393364880414375e-01 1.0519848151210374e+00  1.9215827644294574e+01 1.2184910599892664e+00 6.9531155638568105e+00  1.6518223995458449e+01 2.5290471216961059e+00 7.9089513388672890e+00  1.0736351418600393e+01 7.7832819586134212e+00 1.1743697304801326e+01  8.3901200118458164e+00 5.2414971263668679e+00 9.1239215557390594e+00  9.9988967139337230e+00 5.9006920032254246e+00 6.6585271937675037e+00  7.4778720925792577e+00 6.5701327778738534e+00 8.9277730715584571e+00  7.6897800977875965e+00 7.0865604969847311e+00 7.4272254691662729e+00  8.9436297266937821e+00 5.3474056005844437e+00 5.5937565765791426e+00  8.0258045267032632e+00 5.1587510935857681e+00 7.3382765516356816e+00  8.1078865734579217e+00 6.6642344431607734e+00 5.4167930307226779e+00  8.6316210689172390e+00 3.5927375121647085e+00 7.2251073380325677e+00  1.5361610144416984e+00 6.3815161307102741e+00 9.2785318869935807e-01  5.9548564222145153e+00 3.7604980640194539e+00 -1.6125403094077795e+00  9.5992563156532673e-01 2.7720065333534873e+00 -6.1039890407694077e+00  9.5674908517901713e-01 5.1717385962076516e+00 -3.9602371273842613e-01  1.6040830244666540e+00 3.8462232997622410e+00 -3.4778169756340018e+00  8.5242091272386666e+00 5.3512681405682354e+00 5.7476348252680349e+00  8.5632361451394612e+00 4.1587778688519244e+00 3.7541473416543374e+00  9.2872403058832909e+00 3.6654605420496611e+00 5.2062954354975881e+00  8.5867023041726522e+00 4.8796401731830255e+00 3.5303806692016155e+00  8.7805461595074537e+00 5.3708665743966693e+00 3.4439068466447109e+00  4.1349341344012336e+00 7.3246579185826892e+00 -1.8543205529378529e-01  5.8085802050109008e+00 5.7071588544816105e+00 1.2575334170626868e+00  2.3599063052441411e+00 6.0841286664834815e+00 1.3444177874649121e-01  3.8628706785035067e+00 7.8543603606528860e+00 1.7391964532270190e+00  4.6521875893557736e+00 8.9344655585680872e+00 4.7624281669609978e+00  6.2947024928439115e+00 7.6145959652166830e+00 3.1663111527206911e+00  1.0637025731197653e+01 2.1988917445825575e+00 2.5366534028529379e+00  9.0941844511535734e+00 3.5227268656904411e+00 -8.3220556145186919e-02  1.1961862548307016e+01 2.7164291446257245e+00 2.8423845126905123e+00  1.2842467437107603e+01 -1.0773392292059825e+00 3.5375096547860956e+00  1.1539059704452216e+01 3.7849192398718090e-01 2.0411453772463695e+00  1.1452829045407533e+01 -1.7221899134634838e-01 3.9661501989797601e+00  1.2454655551923475e+01 3.6306432309715903e-01 1.9337235809268034e+00  1.2535723506797785e+01 4.4844729088280072e-01 -3.8823101600574289e-01  1.0822615424433950e+01 6.1938056686227660e-01 4.2005768957756731e+00  1.1765235577597569e+01 3.1178244464303417e-01 9.2358193409217282e-01  1.1674428979316108e+01 2.3524594965244508e-01 4.2302746082956419e+00  1.0870894655858301e+01 2.0349257898269748e+00 4.1496261096511633e+00  1.1306205317984412e+01 6.8654896605668025e-01 2.6472211320811141e+00  1.2335172419091101e+01 1.3457275786333608e-01 2.3034624777535861e+00  1.2580815029193325e+01 1.8104351688910865e+00 3.7942571625767316e+00  1.1690548336972567e+01 1.7214238306894292e+00 2.0788978634633279e+00  1.1923624820227495e+01 3.3796825181974488e+00 3.6195754017493025e+00  1.2869572033557889e+01 4.6517569645998555e-02 3.8397286418926573e+00  1.2003936013248024e+01 -6.9300813593309607e-01 6.6439980730576726e+00  1.2595035694966951e+01 -2.3949639253552379e+00 6.2315897941762781e+00  1.2530633582282496e+01 -1.8585040235293722e+00 5.0866637839470821e+00  1.3977113605230878e+01 3.2747168637849017e-02 5.9487842484629265e+00  1.2535517464645121e+01 -2.1849233636254453e+00 6.7314285305749975e+00  1.1667869819154220e+01 -3.0300540966018872e+00 9.4767084928177248e+00  1.3253489802151378e+01 -1.6359520759334243e+00 9.2989558642236361e+00  1.5343384594793946e+01 1.2877592925642547e+00 7.5923067129521424e+00  1.3499694492006682e+01 -7.7456837152352931e-01 5.1470959860950467e+00  1.2691163902764481e+01 -2.3647248244084427e+00 4.1111365097575572e+00  1.3015242044281084e+01 -1.1703345123991400e+00 3.8958513949050761e+00  1.3619186960896579e+01 3.2112583988612181e-01 5.5889689049655038e+00  1.2343283351846164e+01 -1.5494336838302363e+00 6.3001640757514341e+00  1.2099286312899867e+01 -2.9247975214580313e+00 4.6529840300048262e+00  1.2377869176531542e+01 -1.3182279276179962e+00 4.4047484990517374e+00  1.2445561711835889e+01 -2.7310367250008500e+00 4.6693821138226594e+00  1.3299708713960801e+01 3.4357003819793182e-02 3.4583214760262062e+00  1.4159444166625397e+01 1.8499164672092752e-01 2.3752603648343289e+00  1.0110418196381772e+01 2.0038301305935713e+00 2.0359332211803420e+00  9.9000280431023224e+00 2.2847448475480778e+00 3.9336712102038423e+00  9.9524748181007165e+00 3.2866705940476386e+00 3.4579110778355711e+00  1.2363684281331880e+01 -1.6960552368153448e+00 3.1362716363537535e+00  1.2416983327419201e+01 -1.0633550028099767e+00 1.7334771891934786e+00  1.2111232760814053e+01 -9.4627940145129463e-01 3.0934653520358801e+00  1.2714634006346044e+01 -3.0131246737586759e+00 3.2581432343083163e+00  1.3436412491277746e+01 -2.8094523348691789e+00 2.1798528977715299e+00  1.2754003855689650e+01 -2.7851934416175705e+00 2.0503310820135758e+00  1.2935628924666362e+01 -1.3681289692521075e+00 2.5408413259799678e+00  1.2601009397395472e+01 -2.6348631690027275e+00 3.3986377492791382e+00  1.2716145736672434e+01 -2.6481563143678133e+00 2.9116959344352997e+00  1.1618286585533918e+01 -1.2420918900283018e+00 4.5585234732195348e+00  9.6988036315106427e+00 -1.2776290319005252e+00 1.1981399106267590e+01  1.0387934117491781e+01 -4.6826425324370630e-01 6.9881556293482445e+00  1.1947065775506175e+01 -8.7048734759203064e-02 7.2602447672749513e+00  1.1329374635421301e+01 -2.1789395431311305e+00 7.0350419328084097e+00  5.3111791856513344e+00 1.0283812922796857e+01 3.7221261066928961e+00  6.6622664736162713e+00 6.6879194425736941e+00 3.1961661690129195e+00  7.2049664069146226e+00 8.6862622188688938e+00 5.7967781873208821e+00  7.4236148968969227e+00 7.6735740730778073e+00 5.7606488703536032e+00  5.4410415458021131e+00 9.6371717227976479e+00 4.8536398486212917e+00  1.1600949002434655e+01 -3.0562431158862933e+00 6.7718683787952587e+00  1.2372976617474396e+01 -4.1485605682560034e-01 9.8977370413483641e+00  1.1101832797701094e+01 -2.1610031111064378e+00 1.0428840745880937e+01  1.2742803401025641e+01 3.3356798599862714e+00 6.6165491341455747e+00  9.5372447812529604e+00 3.4198149214129541e+00 8.9657690545578532e+00  1.1578196510824039e+01 4.9488333894858592e+00 7.1560676651565851e+00  1.1969588752432102e+01 6.3619635800195775e+00 1.1580493190476922e+01  1.4866608575395663e+01 3.5713878899120046e+00 1.0474296570416863e+01  1.0272540213633111e+01 3.8095093762611976e+00 5.7899845256596034e+00  8.0888220018325985e+00 1.5164816993014348e+01 6.4470590918302815e+00  6.2332656928150243e+00 1.2539202585536287e+01 3.1140328780157640e+00  3.8752801108538977e+00 1.0819177981756367e+01 1.5626914840333668e+00  4.0224411957689670e+00 1.1066570060079119e+01 -4.3922001232629233e+00  5.9256580969258605e+00 9.1446196774936634e+00 3.8537718747901186e+00  7.4855328474922320e+00 1.0454291989706700e+01 8.3483705108024342e+00  7.7344439662604501e+00 9.4927019285069374e+00 4.5398277320149241e+00  8.5484603809110382e+00 7.0174428522867487e+00 6.2855648545542655e+00  7.2886500033139567e+00 8.6392105967611474e+00 8.0207341237635283e+00  7.3414701860702056e+00 7.2798940961705245e+00 4.4442398587159611e+00  7.3257056178242212e+00 9.4802766811501833e+00 5.9530610129032411e+00  5.1690135867190854e+00 9.7612512441889034e+00 3.3537851281432052e+00  2.4680533024327285e+00 9.4894873650566076e+00 1.7263337709522326e+00  7.5409720811579746e+00 1.3295370821672758e+01 4.3173734627803073e+00  1.2166753158468099e+01 -1.0977795929129048e+00 2.9695679616115025e+00  1.2672165022078952e+01 -3.1936411642718396e+00 3.4707355076072521e+00  1.1729514716679352e+01 -3.4479902511464777e+00 4.9757070270306700e+00  1.1503382134806508e+01 -4.0584915907401209e+00 5.0366072874352055e+00  1.1198358034970903e+01 -1.5193730053927021e+00 4.8167356140419404e+00  6.7981629590795460e+00 6.1595139747704444e+00 3.8252875587201465e+00  1.3108712632070842e+01 2.4730046916633515e+00 1.4386812750716305e+00  3.7926987244650556e+00 1.1381388171004216e+01 -7.1025757498382402e-01  1.4723223250495160e+01 9.3501537951985423e+00 -3.4646107031526561e+00  1.1790651727869625e+01 3.2451043071264616e+00 -1.6937907917897688e+00  1.0427120694765209e+01 -4.1330695198217002e+00 7.4015429643195558e+00  9.5124345692822310e+00 -4.8198991383995233e+00 9.8910288989779822e+00  7.6741714454823908e+00 -6.8605266831962206e+00 1.0523242730052029e+01  8.2103250370615068e+00 -4.5427029494552977e+00 1.2234927118045286e+01  3.8802662262974330e+00 6.7318098322668609e+00 -9.2549427589656190e+00  5.9914942762529988e-01 5.6526508910003459e+00 -4.4176616531750605e+00  8.3242427187716928e+00 2.3501742037077724e+00 -1.0137401280057309e+01  1.0186657336807295e+01 2.1698676014647234e+00 1.5723252689880911e+00  7.9050141187140275e+00 4.6013375099461502e+00 3.1802181239837530e+00  7.2027887301732552e+00 1.6219582977227109e+01 7.1049015172383401e+00  6.4842517578798722e+00 1.3198915595514681e+01 1.7602235742336434e+00  9.9056230073914566e+00 1.7073919719267106e+01 7.7536106067503789e+00  3.5323231505324921e+00 1.0851046133334663e+01 -6.9279532603003036e-01  1.0867979986761519e+01 1.3202784022997658e+00 6.6705601979686184e+00  9.8508506881050106e+00 1.9519832595997912e+00 5.7075493720210915e+00  2.7195252640278302e+00 8.4353715821748345e+00 2.4083481753002696e+00  5.4137904645249968e+00 4.7512859762941648e+00 -3.1397011342421549e-01  5.9116335660614894e+00 5.5733841636533370e+00 2.4846622260280928e+00  1.2951811155240581e+01 -2.8294901679079558e+00 2.4639712095858117e+00  7.8053859935706233e+00 1.0448917459289483e+01 3.2643239713869016e-01  7.1886310102969837e+00 1.4204477118085732e+01 7.6479445745122279e+00  9.8921525968799191e+00 -3.0644821689243509e+00 7.4779055374160919e+00  7.3944995254098282e+00 1.0038509788320994e+01 8.2388612268003190e+00  6.2633408788908609e+00 4.5610392640887945e+00 1.3075955752752892e+00  1.1571936267361725e+01 5.1072066284138989e-02 5.4044295060047498e-01  1.3428097371964970e+01 -1.3661866359183110e+00 1.1746725006596217e+00  8.0134410329620263e+00 1.0184283515900772e+01 7.3526829317640230e+00  8.7929438703489335e+00 9.6884148234462391e+00 1.0753759434832421e+01  1.4450035226447300e+01 2.9848483240742424e-01 2.7602841982900457e+00  1.1176602212006051e+01 1.2571106468066584e+00 1.2459912719249221e+01  1.5854778327503771e+01 3.0189806498818466e+00 8.9087172278394515e+00  1.3331997056702800e+01 1.5063189532496122e+00 6.2081048646703829e+00  1.2290969199404042e+01 -2.7167867395257939e+00 4.1845660771199595e+00  1.3033862805135628e+01 -1.8093514592336426e+00 2.6745762532925030e+00  7.3615162175798323e+00 2.8207848524054380e+00 -2.2896225237737684e+00  9.6516903502719187e-01 5.2113075001261722e+00 3.4564961164744071e-02  1.2392677966597700e+00 2.3779280610273168e+00 -8.0821928264095000e+00  9.6267370869119731e+00 -5.3202436228234369e+00 7.1735949527404088e+00  9.5922812327269131e+00 -1.1239345927492753e+01 6.5667383393929315e+00  1.0875707163541597e+01 -8.4939030204437636e+00 5.5832108157050824e+00  1.0161198030743929e+01 -9.2331389386588114e+00 5.5348135858412908e+00  1.1366359004078396e+01 -9.3253431733277061e+00 3.6578668623337554e+00  1.1591221541920444e+01 -8.8600345940951986e+00 2.2746168488369949e+00  1.1814424178562879e+01 -8.0121109357719114e+00 3.1971310038037561e+00  1.1602146487306168e+01 -8.9404973390022562e+00 3.3426429957672776e+00  1.1071019087556188e+01 -8.6340543466943860e+00 4.4843555060464988e+00  1.1411327116083218e+01 -7.7913718247510690e+00 4.4367406242149912e+00  1.1941843220465559e+01 -7.0102383918162721e+00 4.2733348009225516e+00  8.1678667694389961e+00 -6.1914995085255589e+00 -5.3319964599357128e-01  9.0037593462844523e+00 -6.0505171488298064e+00 -1.3885543338192001e+00  1.0071073378410000e+01 -5.5842098794791601e+00 -1.6916175420044148e+00  9.8837708575986589e+00 -6.4836406978447529e+00 -1.1167881248452920e+00  7.7720513949531842e+00 -3.8721505844135593e+00 -2.9311571345673073e+00  6.6364898744652230e+00 -5.0640059358663461e+00 -2.0734627089486288e+00  8.4049108718811478e+00 -5.4572185702104203e+00 -2.9550461940287782e+00  8.5948846114977329e+00 -2.6480702386273793e+00 -3.3493014571620741e+00  5.6493309781172965e+00 -4.2469534235050439e+00 -3.3592230391985303e+00  1.0994624616545970e+01 -6.9339791139555382e+00 -9.2054873607730725e-01  1.7583559020224271e+01 -6.7077106367575583e+00 -5.3025683118575699e+00  1.4114154621325016e+01 -6.4258951084594624e+00 -3.7843708269830318e+00  1.4421952795255606e+01 -6.7157723912262339e+00 -3.9422018738804097e+00  1.3594512243951478e+01 -7.5571084616432733e+00 -6.4564584961900442e+00  1.5480989981204621e+01 -7.3346708309717110e+00 -7.9708811649496027e+00  1.0799456954830218e+01 -7.6515001329483132e+00 -6.8817319347677737e+00  1.2305961104695161e+01 -6.6354492830935650e+00 -3.8102369766334001e+00  1.3045525380735953e+01 -6.8766037426092277e+00 -2.1595302222902419e+00  1.3555599438963535e+01 -3.4880397579327740e+00 -4.7571361414895943e+00  1.1248366831829316e+01 -3.4256486499592822e+00 -1.5454419494306628e+00  1.1204231877553207e+01 -4.1946901301999242e+00 -1.8307135880050331e+00  1.2492143435374212e+01 -4.0097485427151307e+00 -2.6833379450654906e+00  1.1187483041985208e+01 1.4613386586988419e-01 -2.9354479616807749e+00  1.1205647134821282e+01 -2.3433878935076442e+00 -3.6454365796176673e+00  9.7809384739146790e+00 -1.0422238847627072e+00 -2.2696867853868730e+00  9.8085642793774444e+00 -1.7630688744403050e-01 -1.3611190864164082e+00  1.1607184369345623e+01 -5.8535235130384962e+00 -2.4925207793172000e+00  2.8007007768983807e+00 -9.6605004472602953e+00 1.6129863169272405e+00  8.9721228845752830e+00 -9.9420974412458420e+00 1.7577949045727110e+00  7.3693352366477116e-01 -1.0095191989391010e+01 -1.7098892107634955e-01  3.5682476466168582e+00 -1.4886439964719699e+01 6.9502106599809457e+00  1.3974557913765464e+01 -1.4179610730514375e+01 5.4537721582491807e+00  1.2474179294433249e+01 -7.1232783623490317e+00 2.6492764643780036e+00  1.2133371172972463e+01 -8.2448844482536163e+00 2.6988433130425258e+00  1.1920687160809814e+01 -8.3465785143279376e+00 2.1069614078556107e+00  1.2344568395115502e+01 -7.7804477536027470e+00 1.6943709924215129e+00  1.2796865701600044e+01 -7.6179497116257515e+00 2.4055251401939035e+00  1.2219488716493380e+01 -7.0239449876932811e+00 3.4813963829888568e+00  1.2823999315505102e+01 -7.2967613571833354e+00 2.9459866574425733e+00  1.4575016012701884e+01 -1.4285259024149999e+01 4.7953377800361796e+00  1.6874821094778479e+01 -1.1610014523639094e+01 8.7478192907512431e-01  1.6828167258955745e+01 -1.3422157126083421e+01 -2.8406950868775155e-01  1.4447895406952373e+01 -1.1847978152170507e+01 1.9432256703045936e+00  1.7512242586440937e+01 -1.3208174858608778e+01 7.5599101778215660e-02  2.2903662030150500e+01 -1.4162659214299792e+01 -2.6130527899526852e+00  2.0032063322661461e+01 -1.1926926083654681e+01 -2.3904978397770456e+00  1.4294076600121564e+01 -1.0186663956237501e+01 1.9497231134971604e+00  1.6280133214898147e+01 -1.0852382044778677e+01 6.0387050400138342e-01  1.8672088298845569e+01 -1.1275154331128757e+01 -1.0132211090847538e+00  1.1095556929361079e+01 -8.1791115581689997e+00 7.5423335237732314e-01  1.0320758674194947e+01 -7.0509100272653882e+00 -1.7271978951942343e-01  1.1449790055969942e+01 -7.2708853087448331e+00 -1.6797900544702307e-01  1.0425627674393859e+01 -7.7057826016442181e+00 -6.3453345393482782e-02  9.1015704781747520e+00 -7.5117041875658899e+00 -1.7113842975619781e-01  1.0106004288363875e+01 -8.7197554898305825e+00 9.9249389521280962e-01  1.1980763111771571e+01 -7.2826537249014818e+00 7.0386306250731079e-01  1.2169136561262837e+01 -7.6143183298286630e+00 2.6833815702913539e+00  1.1727183699160189e+01 -8.1384607884682332e+00 1.6122876312185854e+00  1.1587913531721632e+01 -7.3137988347464296e+00 1.4006756431624758e+00  1.0287739920282384e+01 -8.2612332261102992e+00 7.6857895496882023e-01  1.0940479266628609e+01 -9.1666941643061559e+00 1.6197825158611703e+00  1.2889761307223960e+01 -5.6252670352499363e+00 2.6238035474562791e+00  1.2493943002180448e+01 -5.5090659294341986e+00 4.1966278294138331e+00  1.2816527242176488e+01 -5.4958921615674834e+00 3.1061405055062168e+00  1.2589752498307719e+01 -6.2527208752249201e+00 3.2081807508951896e+00  1.2789113739777495e+01 -5.3890561804499901e+00 3.1439430119255198e+00  1.2519473798618561e+01 -5.0631806768811414e+00 3.5066351069503239e+00  1.2457196488708723e+01 -4.6992722653690446e+00 3.6892744200056637e+00  1.2218621886558738e+01 -5.9391895195694762e+00 4.1098655897629017e+00  1.2548335039875980e+01 -4.8977075701438473e+00 3.7203104588986351e+00  1.2480153015503562e+01 -5.5773544338101795e+00 5.7432027938465628e+00  1.1273076711926906e+01 -4.8862964787973109e+00 6.4083730627428581e+00  1.2159021027436882e+01 -3.3856330350871784e+00 4.6762171826937884e+00  1.2016628079637560e+01 -3.3764021703025913e+00 8.3224360499654111e+00  1.1400919528257186e+01 -6.0170179784744828e+00 8.7836121920628685e+00  1.1634622072213235e+01 -6.7019904241045847e+00 6.1151460928450687e+00  9.6424878485614531e+00 -9.5006185150515439e+00 2.1357457054492306e+00  1.0555825184921442e+01 -1.0131593441332955e+01 2.7106227321016969e+00  1.3840878880545901e+01 -1.6265781074196070e+01 8.6309601800849798e+00  5.3216991118956720e+00 -1.3544104914747514e+01 9.3831740631438016e+00  1.1546925257419328e+01 -9.7760079182124215e+00 2.5907059641605370e+00  1.0304513568561813e+01 -8.5741220793085109e+00 5.8227054561991345e+00  8.8844723074058010e+00 -8.4358138243065248e+00 8.3899231170949022e+00  8.8422453368222005e+00 -1.1702645255800425e+01 6.8221988281121249e+00  8.0774380989759411e+00 -1.1824432477634559e+01 6.6467080696713250e+00  8.1531378709566393e+00 -8.9704100590457738e+00 8.6533257770975816e+00  9.5387852108773021e+00 -6.0402118573482237e+00 8.5438802559759690e+00  1.0912566750281899e+01 -6.8076932534835564e+00 6.0012340889723008e+00  1.2654009524537386e+01 -4.4528902701707747e+00 2.8569433824477226e+00  1.2660461576289897e+01 -3.7057627707341565e+00 3.1517005006347270e+00  1.2936323691474415e+01 -3.6721877464362724e+00 2.2937601769804030e+00  1.3552012495275280e+01 -4.2648885855468430e+00 2.3218784330010047e+00  1.3033656610291336e+01 -4.5506107390181771e+00 2.9106581801700688e+00  2.1717954497673023e+01 -8.9618864749252438e+00 -5.5986967734499506e+00  2.1702120997327146e+01 -8.1818743665228215e+00 -3.1285867663882083e+00  2.4533909122148835e+01 -7.6149520591993083e+00 -7.8990190767671127e+00  2.5748509406689887e+01 -6.9161606443189276e+00 -4.9037421256521831e+00  2.5352251073811864e+01 -2.2260479264962174e+00 -4.8782530824161094e+00  2.5835172758357313e+01 -2.6997271179589801e+00 -1.1073480738763841e+01  2.3344317780830067e+01 -6.7735040060204303e+00 -1.0215210917597187e+01  1.6116334473920539e+01 -1.0637197088473229e+01 2.1613512292637069e+00  2.1637951357158624e+01 -1.2197736389520699e+01 2.5079079981680805e+00  1.7664185013951421e+01 -9.5813071750987167e+00 1.4812738327934409e+00  2.5463555403684250e+01 -1.0628156311466867e+01 -1.1797815086967443e-01  1.9701507767060921e+01 -1.2591844538323736e+01 5.1495631141275808e+00  2.3093840120529787e+01 -1.0214253694954698e+01 1.9971158907216648e+00  1.5740203949221787e+01 -4.5238065794012075e+00 -4.3309913800741615e+00  1.2913022710382528e+01 -4.8425198074988600e+00 -2.3009239564314559e+0