<?xml version="1.0"?>
<VTKFile type="UnstructuredGrid"  version="0.1"  >
<UnstructuredGrid>
<Piece  NumberOfPoints="5499" NumberOfCells="24461">
<Points>
<DataArray  type="Float64"  NumberOfComponents="3"  format="ascii">19.9575395887 9.708268887699999 38.484090017  20.7273603915 9.740050754249999 37.57905143465  20.7606860808 10.0149672825 37.98939153605  20.978302293 9.2831871084 38.10310529805  19.9242138994 9.43335235945 38.0737499156  19.8908882101 9.1584358312 37.6634098142  20.9449766037 9.00827058015 37.69276519665  21.9990649973 8.858105329100001 37.7221205791  21.7814487851 9.589885503200001 37.6084068171  21.5638325729 10.3216656773 37.4946930551  26.4544580683 10.4300953381 40.6433994556  26.1519174579 9.62272444125 38.920455464  25.9022809118 9.6829573457 39.3498055118  26.209496031 10.3043160824 38.920455464  26.3968794952 9.748503696949999 40.6433994556  26.3393009221 9.0669120558 40.6433994556  25.8447023387 9.00136570455 39.3498055118  25.9645339937 10.1785368267 37.1975114724  25.6573188745 9.557178090000001 37.6268615202  25.3501037553 8.935819353299999 38.056211568  27.850604432 4.3655893221 40.6433994556  27.45653426725 3.79337663965 39.3860490361  28.0592269121 3.80849901535 40.6433994556  27.41409321115 3.65427943995 40.6433994556  26.9775819903 2.9429695578 40.6433994556  27.66515674735 3.2362863329 39.3860490361  27.0200230464 3.0820667575 39.3860490361  27.62271569125 3.0971891332 40.6433994556  28.2678493922 3.2514087086 40.6433994556  27.0624641025 3.2211639572 38.1286986166  23.8179436701 5.8406949766 38.4239818681  23.4138810544 5.0670431213 38.0600836333  23.1987302954 5.509940840400001 37.9611619887  23.56030900045 5.288735406 38.68735393205  24.0330944291 5.397797257500001 38.5229035127  23.3026743308 4.7367758354 38.950725996  22.94109562575 4.957981269799999 38.22453405265  23.77545975945 4.845837686899999 38.78627557665  24.2482451881 4.9548995384 38.6218251573  22.5795169207 5.1791867042 37.4983421093  28.1364599299 8.5504478512 35.9898513986  26.8143781275 8.9538175255 36.08951105334999  27.65550678615 9.040569458149999 36.34627551965  27.3848917246 8.52022842885 36.78007882665  27.29533127125 8.46369591855 35.7330869323  26.6333235193 8.490009006499999 37.5703062547  26.90393858085 9.010350035799998 37.1365029477  26.54376306595 8.433476496200001 36.52331436035  26.4542026126 8.376943985900001 35.476322466  27.1745536424 9.530691065099999 36.7026996407  24.9778928949 4.9284983488 35.8215026595  25.16330846875 4.4271265627 35.0433455712  25.78713633265 4.4678473998 35.3237649988  25.03421960515 4.1180216904 35.6410450684  25.0905463154 3.307545032 35.4605874773  25.219635179 3.6166499043 34.8628879801  25.8434630429 3.6573707414 35.1433074077  26.5963797704 4.0071964508 34.8260273381  25.9725519065 3.9664756137 34.5456079105  25.3487240426 3.9257547766 34.2651884829  29.3754183978 4.9458034737 40.6433994556  29.4416040657 4.21847377965 39.4107625852  29.8846393612 4.37100947475 40.6433994556  29.2242932853 4.4001512654 40.6433994556  29.0731681728 3.8544990571 40.6433994556  29.9508250291 3.6436797807 39.4107625852  29.2904789532 3.67282157135 39.4107625852  29.7335142487 3.82535726645 40.6433994556  30.3938603246 3.7962154758 40.6433994556  29.5077897336 3.4911440856 38.1781257148  26.2169078521 -0.6702492376 38.4995144218  27.0281072306 0.629247501 38.45958063655  26.6567495605 0.629247501 37.77535997595  26.32975061295 0.629247501 38.3075324368  27.2422634173 -0.6702492376 38.1193901607  26.91526446975 -0.6702492376 38.65156262155  26.54390679965 -0.6702492376 37.96734196095  26.8709057472 -0.6702492376 37.4351695001  27.6136210874 -0.6702492376 38.8036108213  26.4425933738 1.9287442396 38.1155504518  26.0602364485 -0.6702492376 36.5394104232  26.07522127405 0.8445961099 36.20738193625  26.6145914245 0.6736086582999999 36.65168572090001  26.53457773715 -0.000719141099999987 36.29190325895  27.0089190258 0.6688109554 36.0443960947  26.5495625627 1.5141262064 35.959874772  27.08893271315 1.3431387548 36.40417855665  27.1689464005 2.0174665542 36.7639610186  26.62957625005 2.1884540058 36.31965723395  26.0902060996 2.3594414574 35.8753534493  22.3503836081 8.1236472334 40.6433994556  22.8904930201 7.802068213 39.15632648335  21.82130592525 7.95725955965 39.4732968639  22.1747243027 8.490876281249999 39.18276001735  22.36141533725 7.63568053925 37.98622389165  22.7148337147 8.169297260850001 37.6956870451  21.64564661985 8.324488607500001 38.01265742565  21.2922282424 7.7908718859 38.3031942722  23.4306024321 7.4804891926 37.6692535111  28.7889740518 5.2376892964 35.6253388697  28.17263589 4.594225047549999 35.7619875867  28.3488455105 4.9738838318 36.15448105435  28.0558071305 5.148500504499999 35.83073193565  28.9058028113 4.68341383945 35.55659452075  29.1988411913 4.50879716675 35.88034363945  29.0820124318 5.0630726237 35.9490879884  29.3750508118 4.888455951 36.2728371071  29.0226315708 4.1291383825 35.4878501718  27.3226402092 5.0593117126 36.0361250016  21.2482524802 10.8753571985 40.6433994556  22.2463786802 10.281304582 39.06904625535  21.40604252655 10.5985114379 39.06904625535  22.07005414555 10.9415133146 39.22423769789999  22.08858863385 10.5581503426 40.6433994556  22.9289247875 10.2409434867 40.6433994556  22.9103902992 10.6243064587 39.22423769789999  22.8918558109 11.0076694307 37.8050759402  22.2278441919 10.664667554 37.64988449765  20.5762859164 9.2495298692 35.9004616774  20.6262188893 8.2288175677 36.54569129065  21.28767545685 9.053817599150001 36.81129112825001  21.15075961955 8.906941442699999 35.78678631735  21.7252333227 8.5643530162 35.6731109573  21.20069259245 7.886229141199999 36.4320159306  21.86214916 8.71122917265 36.6976157682  21.33760842975 8.03310529765 37.4565207415  20.6761518622 7.2081052662 37.1909209039  20.4618450013 10.4800841949 36.4501302894  20.70415168035 9.808628925899999 37.06644389955  20.6231509918 9.58062140545 36.34249807245  20.93183809855 10.17286741565 36.24846584515  21.0128387871 10.4008749361 36.97241167225  20.15315789455 9.8878381847 36.5441625167  19.8444707878 9.295592174499999 36.638194744  21.4018311958 9.8656506364 36.0468014009  21.48283188435 10.09365815685 36.770747228  28.7120960324 10.351484225 35.110219462  28.78748649275 11.19790083205 34.55597344725  28.27204266765 10.79972660055 34.25202197255  28.29627654255 10.8911228147 34.81529412435  29.1790721077 10.5668660282 34.2876266331  29.2033059826 10.65826224235 34.8508987849  28.6878621575 10.26008801085 34.5469473102  28.6636282826 10.1686917967 33.9836751584  29.6945159328 10.9650402597 34.5915781078  27.8804570527 11.4307614044 34.5203687867  30.0529493015 2.0527997604 36.7557392385  29.14381649525 1.4274592643 37.6475663694  29.7362204989 1.93172830615 37.59474091555  29.18952224145 2.38046256335 37.22154426794999  29.46054529785 1.54853071855 36.80856469235  28.8681412942 1.0442616767 36.8613901462  28.5971182378 1.8761935215 37.2743697218  28.3260951814 2.7081253663 37.6873492974  28.87279343885 2.2593911091 38.060545945  29.4194916963 1.8106568519 38.4337425926  20.6402038491 4.3503352907 37.6666009079  19.9348707625 4.1660352849 37.2608519951  20.2668784049 3.6219711178 37.7549416755  19.6059391618 4.35086194875 37.98228428415  19.8935529607 2.8936069449 37.8432824431  29.141275173 3.91408485795 36.94709238985  28.7391620074 4.25229434185 36.53237372545  28.9153716279 4.6319531261 36.9248671931  29.6009543569 4.17058768285 36.29506230385  29.4247447364 3.7909288986 35.9025688362  29.826857902 3.4527194147 36.3172875006  28.455692444 4.3754503012 37.5768972791  22.5678643352 9.379492557700001 35.9214512618  23.34539328035 9.0062994211 36.87099448115  23.1959958867 8.79729980215 36.1544814969  22.65686036725 8.809365820349999 36.317310128  23.10699985465 9.3674265395 35.7586226307  23.2563972483 9.576426158450001 36.47513561495001  23.6461353741 9.3553605213 35.5957939996  23.79553276775 9.564360140249999 36.31230698385  23.9449301614 9.7733597592 37.0288199681  22.7458563993 8.239239082999999 36.7131689942  27.8865521773 8.0320843572 34.4999763192  27.2200206819 7.39039152535 34.20050433500001  27.94810709575 7.512765063150001 33.92585714425  27.91343798175 7.43099379835 34.5720418053  27.9403237862 6.8299032395 34.6441072914  27.28157560035 6.871072231299999 33.62638516005  27.24690648635 6.7893009665 34.2725698211  27.9749929002 6.911674504300001 33.99792263035  28.0096620142 6.9934457691 33.3517379693  26.5534891865 6.7486986935 33.9010323508  24.5122219509 10.0859099394 35.2812833988  25.51949666975 8.986277296499999 35.45456465265001  25.6599420372 9.930114591600001 35.30141520165  25.0177373574 9.37066439805 35.9399545706  25.01398126325 9.70152283785 34.79589348085  25.5157405756 9.317135736299999 34.3105035629  26.16170134955 9.54572749005 34.8160252837  25.5232527639 8.655418856700001 36.5986257424  26.1654574437 9.214869050250002 35.96008637345  26.8076621235 9.774319243800001 35.3215470045  27.604543606 10.7409065093 40.6433994556  28.0818107786 10.54581326955 39.31394279365  27.537658939 10.45122197905 39.31394279365  28.05809126445 10.2956155079 39.9109158065  28.1486954456 10.8354977998 40.6433994556  28.6928472852 10.9300890903 40.6433994556  28.60224310405 10.3902067984 39.9109158065  28.5116389229 9.8503245065 39.1784321574  27.99120659745 10.00593097765 38.58145914455  27.470774272 10.1615374488 37.9844861317  24.0941917354 4.44311061285 34.8069303562  23.5655127312 5.044282270749999 34.72887916765  24.38354851995 4.47699195165 35.74476942565  24.68853611035 4.894617009999999 34.88366359005  23.85486951575 5.07816360955 35.6667182371  24.3991793258 4.8607356712 33.9458245206  22.7318461366 5.2278288703 35.5119338147  23.2605251408 4.6266572124 35.58998500325  23.789204145 4.0254855545 35.6680361918  26.9280612744 3.6930106186 36.7818289389  26.41676667445 4.69137143705 36.6689771824  27.1253507418 4.376161165599999 36.40897697025  26.9071475707 4.496053424999999 37.1340203544  26.886233867 5.2990962314 37.4862117699  26.614
[...]
<PointData  Vectors="u"> 
<DataArray  type="Float64"  Name="u"  NumberOfComponents="3" format="ascii">1.7053614746454794e+01 1.4500909745741816e+02 5.0726129173252019e+01  5.8441905157957734e+01 1.6111706386936243e+02 5.8533536569760550e+01  4.4972218318943334e+01 1.4158289458026948e+02 4.0277415407801186e+01  6.2772731130397467e+01 1.4418295280491080e+02 5.2554929457426894e+01  1.6249152314892825e+01 1.6339956567799291e+02 7.0698188764598569e+01  4.4390175622141619e+01 1.9766623999264425e+02 1.1080634397110525e+02  8.5397418326032451e+01 1.5296532504388938e+02 6.7924924388513830e+01  8.9450360003885478e+01 1.3036470703813711e+02 3.7128371094812017e+01  7.9228257360627850e+01 1.3530869907209521e+02 3.3349660179471378e+01  6.4196876077749039e+01 1.3474507452414991e+02 2.3018040736397605e+01  6.8189340796259515e+01 8.2504869412677252e+01 -2.0993258347908603e-01  5.9863017079470659e+01 9.1306788421834042e+01 9.7050241757009506e+00  6.1817428548340601e+01 8.4559247649706549e+01 9.3521424677142271e+00  6.6383155747142013e+01 9.1688565292037367e+01 2.5143008610013711e+00  6.5175958935593087e+01 7.7563137845664770e+01 2.2072063564780420e+00  6.0202591527048902e+01 7.7732576832877911e+01 4.5991101726525878e+00  5.4863334325964260e+01 8.0596955898047369e+01 1.9482438509875440e+01  6.9903043036519151e+01 1.0576221537306348e+02 -9.8610640163807215e+00  6.6874901028109420e+01 1.0314814112720605e+02 2.6562372075456830e-01  6.5062669874187705e+01 9.8017581458339976e+01 1.2360296478063734e+01  1.2281088976441236e+01 1.9848146056847998e+01 -6.6217654377864683e+00  2.2983105491527841e+01 3.4856933664930047e+01 -7.8595488672057083e+00  1.4362428061527801e+01 2.1605556072624456e+01 -1.6922825622985196e+00  2.0501486771722565e+01 3.0537337587814328e+01 1.4954511152354792e+00  4.6145176576228671e+01 2.0967394180148904e+01 -3.0557905966208471e-01  2.3995261637198706e+01 2.6050487802019717e+01 -7.2752893103734495e+00  3.6559567690430882e+01 2.5490834046642760e+01 -8.5081216345045991e+00  2.5572163270874537e+01 2.3142818726496120e+01 5.0488182202097509e-01  1.6824603849372437e+01 1.8445966596027851e+01 -3.6419776252745512e-01  3.1471625325405743e+01 3.3309676145903651e+01 -1.3346715733309683e+01  1.1955489000447565e+02 1.0259824761515213e+02 -2.7349627002927477e+01  1.0219569279775382e+02 6.7322712626388821e+01 -3.2156374052956359e+01  1.0690510112734728e+02 8.1998005818454843e+01 -2.1137153222949362e+01  1.1162466598755474e+02 7.0826869840798324e+01 -6.6695888187374450e+01  1.2673457074845943e+02 9.1221722701236516e+01 -2.6764670383384782e+01  8.4224409747892722e+01 4.0242209351203009e+01 -7.1484137842617457e+01  1.0424656749870465e+02 6.5463809099491996e+01 -2.9611864167241151e+01  1.1540788991070852e+02 6.0964210269022615e+01 -5.4347083294047856e+01  1.1102492317466798e+02 7.7777139432263496e+01 -2.5591885721917969e+01  1.1957202242607178e+02 6.7586422529923794e+01 -8.1567076432475822e+00  1.5012646440982394e+01 1.5232657774447873e+02 -1.4837112750776887e+01  5.4861231913562520e+01 1.2340160755617637e+02 -1.5624915444221553e+01  4.0018115329650342e+01 1.3945902143848645e+02 -1.5572445443190260e+01  3.3815771520571758e+01 1.2738038629718088e+02 -8.2081255354479232e+00  3.5883512198578593e+01 1.2860376138680797e+02 -1.7352708531062270e+01  4.5307464903806235e+01 1.1330649566082784e+02 3.6513412377237922e+00  5.0447766953071763e+01 1.1862023872703639e+02 -4.4740442522383521e+00  4.8831716714398617e+01 1.1431936839070725e+02 -8.1350985170116736e+00  5.4129386094639557e+01 1.1416184199482827e+02 -1.7460987368142696e+01  5.6856353149736158e+01 1.2759528573907551e+02 -1.4834171618123705e+01  6.9986395771929935e+01 5.3599874082263277e+01 -2.9672376186029002e+01  6.0355099587558023e+01 4.3884830734372173e+01 -4.1939556080639505e+01  4.7823882907544252e+01 4.9159399560332695e+01 -3.5831859578639566e+01  6.3391117596950778e+01 4.1968604339578214e+01 -3.5880338571857280e+01  5.5450636335828314e+01 3.4142878994499661e+01 -3.8619116346606262e+01  5.1639251243934673e+01 3.7873994780275105e+01 -4.4095532582199212e+01  4.2076716404642418e+01 4.1434157342375826e+01 -3.8114771943518427e+01  2.6817470511538698e+01 4.8299689166197325e+01 -4.0179573540751434e+01  3.8834558479946772e+01 4.5290235302734686e+01 -4.5463448111538511e+01  4.8729841885805023e+01 4.1255733561088448e+01 -5.1322703957705627e+01  -1.2421239616276429e+00 1.0393298404865158e+01 -7.2483227537905650e+00  -5.3795157639682811e-01 2.0648989764166377e+01 -9.2602548151993762e+00  -3.6526448881681035e+00 1.0131218439495033e+01 -2.0933326310284444e+00  2.4629274117144906e+00 1.3067794851606969e+01 -2.0475792463588975e+00  6.1232750478707114e+00 1.5638507393016470e+01 -6.4026575935426622e-01  1.8154019400324939e-01 1.5448076856669172e+01 -5.3591906559533680e+00  3.7983083743287613e+00 1.8698639400462010e+01 -6.7162034714318857e+00  9.1582855486632964e-01 1.2433434929880706e+01 -4.3206367166589571e-01  -1.7975402419866713e+00 9.3641754728299684e+00 -1.7474816611466877e+00  5.3215132653841735e-01 2.1296748028433793e+01 -7.0023869665939786e+00  2.6457999983736752e+01 -6.0471889973064927e+00 8.7651275402349018e+00  3.0110270664237415e+01 4.5383144498420664e+00 2.5315342025653131e+00  3.4637875089795443e+01 7.7278108651163002e+00 -3.3322918335894336e+00  3.9686715882549883e+01 2.6583140161448124e+00 -2.2204213705824816e-01  2.4715099895507453e+01 6.8910788614451390e-01 2.1939576582004028e+00  2.7808815454287402e+01 1.1490364743578657e-01 5.2145584963235718e+00  3.0732513143605605e+01 -5.1758683650688719e-01 4.2587501374145953e+00  3.1231799520567286e+01 1.4021549004851139e+00 2.8988731571495570e+00  1.8035116707785260e+01 7.4106244184412684e-01 6.0314042840358262e+00  4.1672717400916376e+01 1.6837334460796345e+01 -9.6376586109289590e+00  2.4833694567618274e+01 7.9475953498212979e+00 2.7606345754015336e+00  3.5646954618800315e+01 2.1652588721440999e+01 -1.4953057335102930e+01  3.3192853972583436e+01 1.8454591369251240e+01 -7.6260004093103486e+00  2.7231395818517274e+01 2.4862792978808628e+01 2.2703880692780580e+00  3.0118969293213841e+01 2.1214988403283773e+01 -1.3156052396017225e+01  3.0993216676580413e+01 2.4344416310143401e+01 -2.1626661834164000e+01  2.5979567651340538e+01 2.1047543796571393e+01 -1.4619162540460373e+01  2.6461318839425090e+01 2.4503931078434327e+01 -1.4735234308302591e+01  3.1723225244666722e+01 2.7481049291134184e+01 -2.0763018835509467e+01  3.7027258205743699e+01 2.9943595188732694e+01 -2.7047113083951103e+01  9.5494851830424523e+01 9.7811775631913264e+01 1.5672539838927340e+01  9.8355674263313574e+01 1.1767342160145344e+02 3.1077307444046820e+01  8.0080000091196851e+01 1.2663340024943275e+02 3.4517530078588337e+01  7.8733304250008047e+01 1.1799610815504535e+02 2.8352756936488248e+01  1.0360384397313405e+02 1.1607352078482469e+02 3.1178508336350017e+01  1.0133496218546418e+02 1.1619072787284513e+02 2.7668350074225756e+01  8.9112323425838042e+01 1.3123366103998870e+02 4.4962143485892810e+01  8.7215458964170409e+01 1.3428198821841187e+02 5.2179130175968176e+01  1.0280496934534796e+02 1.0808629457743191e+02 1.9093285297515827e+01  -3.0028660126808496e+01 4.4387204196195292e+01 -1.5513841608610036e+01  -6.1393456240069089e+00 4.7088346236703032e+01 -2.1466233857968223e+01  -1.1995935180281375e+01 4.9385370028778411e+01 -1.7108071284340578e+01  -8.8086476033077812e+00 5.5980525965768386e+01 -2.2588680333047872e+01  -2.2284426665308672e+01 3.8587641693690351e+01 -1.6197614112527187e+01  -1.8204771066577564e+01 3.4522595155806314e+01 -1.1511663107238768e+01  -2.5836333112621613e+01 3.5882234326287900e+01 -1.2498110009630512e+01  -2.3097826609808529e+01 3.3405294793216243e+01 -1.0521006214055914e+01  -1.6739877726118163e+01 3.4018456745157344e+01 -1.5468777696525922e+01  1.1729407527073452e+01 5.9286678482135052e+01 -2.3356942996504021e+01  1.9082560644829460e+01 7.6864126861426456e+01 1.1571782395168174e+01  5.7406911299379232e+01 1.0390566011305646e+02 1.5152524446154434e+01  4.2150806780848711e+01 1.0541177272357555e+02 1.7667565185118850e+01  4.9102354255070765e+01 9.6254746684002257e+01 8.7340049213503637e+00  3.9841037876219794e+01 9.1163853314281909e+01 1.5800135765065293e+00  5.9563654325018618e+01 8.8404376419434627e+01 5.5840905848650735e-01  6.0179029407263663e+01 9.4951850950662973e+01 7.5964762995979394e+00  6.4657669660230638e+01 1.0537681769689289e+02 1.3902273675005428e+00  6.4655271438504386e+01 1.1806280152352305e+02 1.0591457388089760e+01  2.1953992099500431e+02 2.3560996938713097e+02 1.4623546817472740e+02  1.6667376806018001e+02 1.4551760022305950e+02 1.1526190051408624e+02  1.1099343898412513e+02 1.6751552635797455e+02 6.0650042710667165e+01  1.9179930501603732e+02 2.0424143831481902e+02 1.0629595118149675e+02  1.8491635649678145e+02 1.5146617229260630e+02 7.6609729329295078e+01  1.6207901870511876e+02 1.2859054369070205e+02 8.2799827003822813e+01  1.2514390845201083e+02 1.4084685599985178e+02 5.2170883416546701e+01  1.1863676014610476e+02 1.3319243448393701e+02 6.7542744452946252e+01  1.4536916148687473e+02 1.1966466996575699e+02 9.1820838461546245e+01  5.9488901577966608e+01 1.8846512860169511e+02 3.0016630223547114e+01  6.7386575486839746e+01 1.7294525980273337e+02 5.2936150956469838e+01  8.5909414906838251e+01 2.3962783567973943e+02 7.1296217469054469e+01  9.1629374475362326e+01 2.1040994183143096e+02 3.1188525334736809e+01  6.1717724304864262e+01 1.6086294330274958e+02 2.4454174139866360e+01  5.4611684194738572e+01 2.2539141615961699e+02 3.2884675777234349e+01  1.5038195509318439e+02 2.8708800931593458e+02 1.8257784534883660e+02  1.1427268430242125e+02 1.9464220240577481e+02 3.8551035342216487e+01  8.1003460529404549e+01 1.6154478205428774e+02 2.6509027858806490e+01  1.5866566660602211e+02 1.7922310699088482e+02 -5.9088281159600122e+01  1.8311280164138032e+02 1.2898653942556186e+02 -1.8806070043360556e+01  1.3412775785760951e+02 1.4171799774336955e+02 -1.1057733514666772e+01  1.4094008725306466e+02 1.3821238564614009e+02 -3.0570991478788759e+01  1.9405957018917726e+02 1.5648565163551351e+02 1.3848629855128420e+01  2.1139031003166937e+02 1.5878334849242955e+02 -3.6413660471465896e+01  1.8438575994336654e+02 1.7889455197171404e+02 -2.2893290206901337e+01  1.4289760258435794e+02 1.7263992235933193e+02 9.4119690296517096e+00  3.0700514493781230e+02 1.3092043223677530e+02 -5.0908319487508509e+00  1.1667178239556085e+02 1.1941412745947267e+02 -2.8199185475803990e+01  1.9381855010193740e+00 1.2181543982914972e+01 -4.4186551530829412e+00  1.2106369617261317e+01 1.4006066818200944e+01 -4.0477451660678607e+00  6.6012024730226573e+00 1.3509329861527654e+01 -4.6660288388793063e+00  6.6012585609060368e+00 1.8642146913028927e+01 -7.1956346775124400e+00  9.9903271410815240e+00 1.4419909920689360e+01 -7.8455936670662529e+00  1.3932250391634318e+01 1.8144193122086065e+01 -2.8627512636899337e+00  1.4090510188993637e+01 1.8722233779467242e+01 -7.4387623646246412e+00  1.4481775764138170e+01 2.3986834428557287e+01 -9.3852211598060631e+00  1.1929540247046104e+01 1.8083049062422372e+01 -5.9450862620218876e+00  1.0047611732580732e+01 1.2484921871534283e+01 -2.6909674807743333e+00  1.5135294725110390e+02 6.7621868636284916e+01 4.4988761793716542e+01  1.7516660107535017e+02 6.9830158417682156e+01 6.6591549634264950e+01  1.6312814797905895e+02 5.9277937256675273e+01 5.0389384715333165e+01  1.5848066068853436e+02 8.1212364280843516e+01 7.5652533694601644e+01  1.7554020940739355e+02 5.4562711391188643e+01 5.9584651796891983e+01  -4.9809619184623397e+00 2.9908762035056398e+01 -1.0541605477496699e+01  -7.3392183665711004e+00 3.7531997064749810e+01 -1.3355547504153696e+01  -1.0568806603400891e+01 3.8895826969007686e+01 -1.1775464279917070e+01  -1.3788583865395408e+01 2.8271435199817901e+01 -8.1779586786595999e+00  -1.2726129175655005e+01 2.6589276014673082e+01 -9.7869997605590289e+00  -1.0070675020497152e+01 2.0559287692827720e+01 -7.7909440926624685e+00  1.3868491046657011e-01 4.0419677483712135e+01 -1.3577720691675832e+01  1.1954975337256711e+02 1.5022913236384295e+02 2.2422441864924085e+01  9.6819180444153645e+01 1.1573450170714652e+02 1.3696666214306619e+01  1.1554918667695131e+02 1.2089868965786805e+02 1.5475336595168892e+01  1.2049312896025775e+02 1.2915619481133686e+02 2.8694833869019821e+01  1.1312846906559626e+02 1.3979134815853095e+02 1.0099369675887212e+01  9.4673991029103206e+01 1.2454411705667050e+02 6.4452604728081884e+00  1.0812020871149871e+02 1.3050705718047405e+02 -4.0204041633014294e+00  9.2017677039347944e+01 1.1934695312433010e+02 -6.1452584760227580e-01  8.2173582650361666e+01 1.1143247812301195e+02 1.8968526753671773e+00  1.1816350555658354e+02 1.1705416991815190e+02 2.7349064828628215e+01  9.2697337487364511e+00 1.3256830775115458e+02 -3.0580699210434013e+01  2.4462963265119896e+01 9.6130269881342841e+01 -3.4831376494298127e+01  -4.6590382005566049e+00 9.9974625495092880e+01 -4.1306848104523418e+01  -4.3898594418722574e+00 1.0557487966968411e+02 -3.4228525583360558e+01  -1.0374549531627672e+01 9.3496588074836325e+01 -4.0667702344941382e+01  2.4200343197750730e+01 7.8541568228812793e+01 -4.6700065698444675e+01  1.9732494850124407e+01 8.3683220714692638e+01 -4.0378859034714900e+01  -2.5359932719128220e+00 8.5640160185287442e+01 -4.8567070681984148e+01  6.7632763233387729e+00 7.7934002733701703e+01 -5.7030117677518682e+01  4.1988699275449278e+01 7.4696831453060099e+01 -4.0991975973225834e+01  8.4940341146293093e+01 1.1829243467606724e+02 -1.4747947919553358e+01  7.4900027258189368e+01 1.1237869233112805e+02 -1.3861302070666810e+01  7.9544320663119677e+01 1.2094786573906323e+02 -1.9528346692901977e+01  8.0277653096623368e+01 1.1333136385224537e+02 -1.0108627060223030e+01  8.1231282480376663e+01 1.1892166174728692e+02 -1.4356576865501225e+01  8.4982217432569826e+01 1.2066693614554745e+02 -1.0219709108223311e+01  7.6316176678550562e+01 1.2576090480545142e+02 -1.9816328995078365e+01  6.8927393967992600e+01 1.0769005984934381e+02 -4.1022878325882495e+00  6.5732803811087720e+01 1.1734287153712735e+02 -1.4459723092170321e+01  7.1591432142597967e+01 1.3189062904974614e+02 -2.5578860135504677e+01  1.0638300911604451e+02 1.0370976181890418e+02 1.8153177864724797e+00  9.7546047610001949e+01 1.1631639830391121e+02 2.0175909009098451e+01  7.9377807328671494e+01 1.0287514892193867e+02 6.1355725276171844e+00  1.1729852988993605e+02 1.5836578226857947e+02 -3.7237419120720867e+00  1.4636012238041070e+02 6.2002083401023434e+01 2.7324831077931002e+01  1.4997947673793962e+02 5.5800184754171156e+01 2.5476567178391406e+01  1.0856831262287345e+02 9.1837342145051338e+01 8.2543890550439144e+01  7.8935344100939233e+01 1.6224248443113100e+02 1.3708021458740726e+01  6.6518457651165534e+01 1.2425394092649593e+02 1.0040626404992246e+01  6.4494469095592237e+01 1.1680316188810647e+02 -3.3102906076375476e+00  8.6310068697543329e+01 3.1770973419440530e+01 -5.0380682298872735e+01  1.0904583012433029e+02 3.2217392110454838e+01 -4.9259790647465977e+01  8.2512063935016258e+01 4.2430729089700321e+01 -3.5292648495397778e+01  7.4796016390823624e+01 4.3779640594464894e+01 -4.2877769538400180e+01  1.0178001386564408e+02 4.6149450856455402e+01 -3.1647043605654947e+01  7.5742256991505357e+01 3.3777044629097858e+01 -5.9279153693735473e+01  1.5270751098651348e+02 3.6836719181470613e+01 -2.7202879414945468e+01  1.2015053177935982e+02 3.1783682585499552e+01 -3.7616492516451764e+01  9.3896287539567609e+01 2.9160686762629947e+01 -4.2231263467700536e+01  2.7640173402930092e+01 4.1937706243827762e+01 -2.0009759894112122e+01  3.6154141199638303e+01 5.7414609867436205e+01 -2.0832911839221140e+01  2.0356806822263618e+01 5.0776209295677049e+01 -2.1869876248087390e+01  2.6298007118529160e+01 5.3745879442796770e+01 -1.7936420793560153e+01  2.3409397651960589e+01 7.0307450665076672e+01 -1.4135999399176939e+01  3.0549665138096969e+01 6.6960125217903425e+01 -2.1034312561180801e+01  3.6185448107771805e+01 7.2531623663125615e+01 -1.5113475975894001e+01  1.8924155532072948e+01 6.4206777860922031e+01 -1.7699005218256669e+01  4.9277727597501006e+01 7.2757372107053698e+01 -1.7318013716957140e+01  5.1917017509876736e+01 1.1712819734361572e+02 2.4448928670361078e-01  6.5827266744167318e+01 1.1490001308235466e+02 -1.2266530137183580e+01  6.6703844444083217e+01 1.0892437943547655e+02 -7.9339987229099451e+00  6.0029778493226040e+01 1.0925727029306474e+02 -2.4689077716514345e+00  5.9976997435467794e+01 1.2208259070987636e+02 -9.5230114777734745e+00  -3.8904050790078102e+01 1.0828228743200086e+02 -5.0152553347950333e+00  -9.7043042236495385e+00 9.2780998794821727e+01 -9.8235789806065963e+00  -8.5400943450434141e+00 1.0761294322995296e+02 -5.4844268098885012e+00  -4.4393756257775570e+00 8.2945880162994925e+01 -1.2529416384532791e+01  -4.0996173831299650e+01 8.4979208804480947e+01 -6.8960474794381019e+00  -3.5409517007464416e+01 6.9106801225047235e+01 -1.0006793328656123e+01  -1.7554726348619845e+00 7.1690143400739743e+01 -1.4779105318520065e+01  1.7543602012806080e+01 8.6949890894438312e+01 -9.0995816472130997e+00  1.5612391963277089e+01 1.0481548444315588e+02 -4.1406724445458609e+00  4.6111881457898932e+01 5.3139529372670054e+01 -5.0032328918340738e+01  6.4026453268606261e+01 7.0041740200539749e+01 -3.2760346678992136e+01  5.5050089892842664e+01 6.7452141046814006e+01 -3.6591841080336458e+01  4.3783347021128449e+01 6.2125928915978051e+01 -4.5707317117673156e+01  6.6215017131395413e+01 5.8072479954387852e+01 -3.8912401792667005e+01  8.7739688466811600e+01 6.6027642911993439e+01 -2.7481518221366315e+01  7.5227510997738932e+01 7.6590103193587638e+01 -2.4578817898786824e+01  5.3138150480284217e+01 8.1343113785232106e+01 -3.1546614721045124e+01  6.4201383887216650e+01 8.7299063345894950e+01 -2.3005797019810824e+01  -1.9325320256094873e+00 2.7119571603913343e+01 -1.5713004564081723e+01  -9.3183195141346147e+00 1.8079366287234254e+01 -1.3494485646799234e+01  -2.0394026737612517e+01 1.9656623512170132e+01 -1.0184470980069273e+01  -9.0980303814893588e+00 2.2190810680378984e+01 -8.0733165550497219e+00  -1.3893782539870019e+01 3.2805845475660874e+01 -1.1947133058858578e+01  -1.2651600806570165e-01 3.0278530178895213e+01 -9.9587377333276059e+00  1.2555012360025890e+02 9.8943675812314311e+01 5.7096162734162746e+01  9.7707278650065263e+01 1.0586456429045631e+02 3.5905233305362835e+01  1.0449311855044567e+02 1.1255617243078026e+02 2.9551149184457024e+01  9.1383317631097981e+01 1.0250027247730166e+02 2.6097536078114643e+01  9.9139699314703023e+01 7.8491781820684267e+01 9.0761228085234876e+01  6.5715477523456642e+01 9.0480025905392907e+01 8.0344243812122954e+01  8.1189935937145194e+01 9.9595173737459504e+01 2.6592252204708490e+01  8.6167747277117087e+01 1.0538241744850427e+02 1.1885041923758683e+01  9.3703490879625448e+01 1.0463987666622006e+02 1.7522657837500994e+01  5.7332362990570381e+01 9.4893439406856501e+01 -6.1806837096876368e+00  6.7366888414265347e+01 1.0095154662271474e+02 -1.1815222443159062e+01  6.0338545554510219e+01 9.1781162305483704e+01 -1.5779704299172936e+01  5.3988777679090930e+01 1.0302139123144178e+02 -1.1555963044651760e+01  6.3224325822444456e+01 1.0242461758545299e+02 -4.3257381295990500e+00  5.8387043049000532e+01 1.0101155089054768e+02 -1.9383914081622894e+01  6.2783419030230085e+01 1.1046542132757820e+02 -1.1303074987144027e+01  9.0163312603428352e+01 1.7367679861567728e+02 -1.8665985211854559e+00  9.5506684647449688e+01 1.2605582013211396e+02 3.7304925313342912e+00  1.0405752702620447e+02 1.2810845819075399e+02 1.8180369421790729e+01  8.9793858216295718e+01 1.3472143719944668e+02 2.9016565497283487e+01  1.0585446672257349e+02 1.1875349819331333e+02 3.6897821374107551e+01  1.0881122637366981e+02 1.0725645796673307e+02 1.5849279843168976e+01  1.1293286773744651e+02 1.0407566308862052e+02 1.5586431274880537e+01  1.1024073136446908e+02 1.2064147893943669e+02 3.2889389773549638e+01  9.5919392501010265e+01 9.6322062353768104e+01 4.4034033678204016e+00  1.0227729052191650e+02 1.1085178464561359e+02 1.9307265498687933e+01  1.004716340341662