<?xml version="1.0"?>
<VTKFile type="UnstructuredGrid"  version="0.1"  >
<UnstructuredGrid>
<Piece  NumberOfPoints="5770" NumberOfCells="24955">
<Points>
<DataArray  type="Float64"  NumberOfComponents="3"  format="ascii">3.0986982681 35.4326739964 22.6120767775  3.22351706875 36.00821770575 23.30937725735  3.0632152941 35.13554529584999 23.11621476965  2.5569670259 35.55433193375 23.06059102895  1.9187604874 37.0297417919 24.1024796892  2.4585590386 36.61156113894999 23.5914781967  1.7437713476 36.83455132735 23.6393791727  1.96699813555 36.3528658315 23.8057924848  2.0152357837 35.6759898711 23.5091052804  1.79200899575 36.15767536695 23.3426919683  1.5687822078 36.6393608628 23.1762786562  2.46101251885 36.59436566325 23.21158688805  3.00274376105 36.47270772589999 22.7630726366  2.906789254 37.5127414554 22.9140684957  3.1275625617 37.04825143524999 23.46037311645  3.3483358694 36.5837614151 24.0066777372  3.67550547305 35.4620652647 23.06368524605  3.8875040339 36.0348102678 22.7183793976  3.61791995165 36.30928584145 23.3625285674  3.493101151 35.7337421321 22.66522808755  3.39714664395 36.7737758616 22.81622394665  3.7984347906 37.0691206812 23.09839915715  4.582705883 37.9185542775 22.9247809766  3.7447475685 37.71564786645 22.91942473615  4.36275649535 37.39569927755 22.5057212944  4.3745879273 37.97551780315 22.43470600385  4.1664699716 38.0324813288 21.9446310311  3.5366296128 37.7726113921 22.4293497634  4.15463853965 37.4526628032 22.01564632165  4.1428071077 36.8728442776 22.0866616122  3.52479818085 37.1927928665 22.50036505395  2.2377857309 37.0760511591 23.04517357595  2.4127748707 37.27124162365 23.50827409245  3.35987554175 38.34940782389999 22.65579026865  4.19783385625 38.55231423495 22.6611465091  3.8129618295 39.1860741924 22.3975120416  3.98971590055 38.6092777606 22.17107153635  1.66080570225 37.5392870675 23.64298370815  1.48581656245 37.34409660295 23.17988319165  1.4028509171 38.0488323431 23.1834877271  2.15482008555 37.78078689925 23.0487781114  4.0151555708 36.4538272727 22.4025205049  4.41644371745 36.7491720923 22.6846957154  2.2315025383 27.337479815 17.7662573786  0.82789204555 27.38348904505 16.862067013  2.20947048265 26.9689808 17.19594584835  2.2717427969 27.5195448947 17.20596753205  0.78765178695 27.20142396535 17.42235685955  -0.6561989643999999 27.0653681157 17.0784563405  0.7656197313000001 26.83292495035 16.8520453293  2.3119830555 27.7016099744 16.6456776855  2.24971074125 27.1510458797 16.6356560018  2.187438427 26.600481785 16.6256343181  0.4427117540000001 26.9869427542 16.45011405095  1.92680276395 27.30506368355 16.23372472345  1.8645304497 26.75449958885 16.22370303975  1.5416224724 26.9085173927 15.8217717614  0.02286686800000004 26.88964717155 16.5648139822  1.4446855637 26.6572040062 16.338402971  0.7019327004 26.7139262274 16.0511716239  1.1217775864 26.81122181005 15.93647169265  1.74732417565 26.17917795735 16.36257494875  1.42441619835 26.3331957612 15.9606436704  3.5581603736 34.7306451021 19.1618106005  2.9735114549 34.67669033525 18.58952379935  2.68192026465 34.9544094216 19.22308499125  2.99583145185 35.6402074521 19.0260816371  2.4335025301 36.5497698021 18.8903526737  2.41118253315 35.58625268525 18.45379483595  2.1195913429 35.8639717716 19.08735602785  1.8056801557 35.1781737411 19.284359382  2.09727134595 34.90045465475 18.6507981901  2.3888625362 34.6227355684 18.0172369982  5.3654081363 28.3471263654 5.0255241605  5.87872417205 28.0402352784 4.0316145094  6.12519904175 28.5700754067 4.05913194355  5.353880059 28.4420347563 4.0920080252  5.89025224935 27.9453268875 4.9651306447  6.136727119050001 28.4751670158 4.992648078849999  6.9080461018 28.6032076662 4.9597719972  6.6615712321 28.0733675379 4.93225456305  6.4150963624 27.5435274096 4.9047371289  5.3423519817 28.5369431472 3.1584918899  10.0827920801 24.6038513924 1.3334457941  10.01009033605 24.66471694345 0.9983620306500001  9.625390607300002 24.6367220613 0.33717265885  9.948529527750001 25.09628997835 1.08767616155  9.814266975400001 25.5887285643 0.841906529  9.8758277837 25.1571555294 0.7525923981  9.49112805495 25.12916064725 0.09140302629999997  9.167989134500001 24.6695927302 -0.6591004764  9.552688863250001 24.69758761235 0.002088895400000013  9.937388592 24.7255824945 0.6632782672  4.1236143642 34.4087266844 17.8402652395  3.9644113617 34.2687860938 16.7244826699  3.8902488638 33.98424021435 17.06851243375  3.56508793885 34.3603928271 17.2623915289  4.52293778705 34.3171199511 17.3023563805  4.9222612099 34.2255132178 16.7644475215  4.28957228665 33.89263348105 16.53060357475  3.0065615135 34.3120589698 16.6845178183  3.33172243845 33.93590635705 16.49063872315  3.6568833634 33.5597537443 16.296759628  -0.6561989643999999 35.3850613632 12.6741323535  0.5874322189000001 36.1597813471 12.57807371595  0.7863195824000001 35.5473084676 12.25192576225  -0.6561989643999999 35.89210706015 12.2675949903  -0.6561989643999999 36.3991527571 11.8610576271  0.5874322189000001 36.66682704405 12.17153635275  0.7863195824000001 36.05435416455 11.84538839905  2.2288381292 35.709555572 11.829719171  2.0299507657 36.3220284515 12.1558671247  1.8310634022 36.934501331 12.4820150784  1.9762716604 39.198664308 12.0675771141  1.8462244 38.37024845585 11.12466161  1.5153557339 38.1726252534 11.32950528135  2.11066563855 38.3546234131 11.64611803935  1.71183042185 39.21428935075 11.54612068475  1.38096175575 39.0166661483 11.7509643561  0.7856518511 38.8346679886 11.4343515981  1.1165205172 39.03229119105001 11.22950792675  1.4473891833 39.2299143935 11.0246642554  2.2450596167 37.5105825182 11.2246589646  4.6935369478 36.6833445377 19.6731281953  4.15246250595 36.8058608632 19.01345789295  4.6302387834 36.23477541435 19.07363712875  4.7991217398 36.8014403597 19.20444817415  4.9047065318 36.9195361817 18.735768153  4.08916434155 36.35729173985 18.4139668264  4.25804729795 36.9239566852 18.5447778718  4.7358235754 36.35287123635 18.6049571076  4.566940619 35.786206291 18.4741460622  3.6113880641 36.9283771887 18.3537875906  2.6796273909 34.1063118835 9.005372079200001  1.9870347953 34.84110978645001 7.812963445999999  2.5918544492 34.8071343628 8.081180621750001  2.52554494635 34.8991859349 8.668204589950001  2.74593689375 34.01426031139999 8.418348111  2.14111723985 34.04823573505 8.150130935250001  2.8122463966 33.9222087393 7.8313241428  2.2074267427 33.95618416295 7.56310696705  2.3714625018 35.6920599863 8.3310371007  1.6026070888 33.9901595866 7.2948897913  1.4464757129 25.9375092396 3.5710717655  2.66404305995 25.6616141482 3.5958813864  2.18202973415 25.33506471665 3.7973877209  2.19001579385 26.0890965784 3.99368023625  1.920502979 25.5100268094 3.17327291565  1.70800246805 25.76254714685 4.19518657075  2.3945302451 25.0825443792 2.7754740658  1.9695292232 25.5875850541 4.819301376  2.451542549 25.91413448565 4.6177950415  2.9335558748 26.2406839172 4.416288707  3.6198063401 32.004083694 4.3719912606  2.40494380245 31.8163336672 4.10757442185  2.82922622875 31.6080295094 4.61710455695  2.7723128822 32.4871042304 4.53296637145  3.1955239138 32.2123878518 3.8624611255  2.7712414875 32.4206920096 3.3529309904  2.3480304559 32.6954083882 4.023436236349999  1.9248194243 32.9701247668 4.6939414823  1.98173277085 32.0910500458 4.7780796678  2.0386461174 31.2119753248 4.8622178533  3.0197012039 33.4494988182 12.6006849864  2.2909989882 34.47994221085 12.2923344914  2.8670788672 34.5959105467 12.7058785234  2.43855731345 34.30002569905 12.8644112823  2.87214287865 33.62941533 12.0286081955  3.3006644324 33.92530017765 11.8700754366  3.44822275765 33.74538366585 12.4421522275  3.8767443114 34.0412685135 12.2836194686  2.7245845534 33.8093318418 11.4565314046  1.857413423 35.1505525799 13.1281375782  4.2425195033 29.3661201153 5.3085536462  4.6230073246 28.4093847853 4.37617655185  4.0615630081 28.91888166025 4.517691294700001  4.1288065965 28.62815996155 5.32131103915  4.8039638198 28.85662324035 5.16703890335  4.0150936897 27.8901998078 5.3340684321  3.9478501013 28.1809215065 4.53044868765  4.690250913 28.1186630866 5.179796296299999  3.8806065129 28.4716432052 3.7268289432  2.232734164 33.7206129387 19.5517131271  0.8663317859 33.91550986925 18.4081326763  2.3107983501 34.17167425355 18.78447506265  2.044713982 33.60653514445 18.3430080613  0.7882675998000001 33.4644485544 19.17537074075  -0.6561989643999999 33.2082841701 18.7990283544  0.6002474178 33.35037076015 17.96666567495  1.8566938 33.4924573502 17.1343029955  2.1227781681 34.0575964593 17.57576999685  3.7810969718 35.0230190906 9.3400030705  3.0762797368 35.35753953845 8.835520085599999  3.6375370302 34.9371250756 8.686740220200001  3.23036218135 34.56466548705 9.17268757485  3.08680223975 34.47877147205 8.519424724549999  3.4939770886 34.8512310606 8.0334773699  2.9327197952 35.27164552345 8.1822572353  2.0314638436 28.1954036946 6.7859145964  1.94042308715 28.3418447538 5.8630333214  2.4209471242 27.78826850745 6.3550014947  2.54413481035 28.4309763752 6.36896150435  3.0568057771 28.6665490558 5.9520084123  2.32990636775 27.93470956665 5.4321202197  2.4530940539 28.5774174344 5.44608022935  2.93361809095 28.02384118805 5.93804840265  2.8104304048 27.3811333203 5.924088393  1.8493823307 28.488285813 4.9401520464  9.3056070874 24.9625425716 3.9192605035  8.59948891965 24.80381573735 3.1065686846  8.85297858475 24.2179599615 3.05676122815  8.793400514649999 24.83889663105 3.9234000118  9.111695492399999 24.9274616779 3.1024291763  9.046890179750001 24.2530408552 3.87359255535  8.9177838974 24.8923807842 2.2855978491  8.7881732721 23.5435391388 3.8279246072  8.534683607 24.12939491465 3.87773206365  8.2811939419 24.7152506905 3.9275395201  -0.6561989643999999 33.4487640212 13.020223097  0.53005082225 33.18025308035 13.5401542794  0.6006072293 34.29965830055 13.0741803376  0.7347420139999999 33.18265020975 12.66346528935  2.1256829924 32.9165363983 12.3067074817  1.78685701595 34.0311473597 13.59411152  1.92099180065 32.9141392689 13.1833964717
[...]
<PointData  Vectors="u"> 
<DataArray  type="Float64"  Name="u"  NumberOfComponents="3" format="ascii">1.7272693208402092e+02 -5.2242315544309683e+01 4.2676046694932586e+02  1.4463089978679565e+02 -7.1801615456704184e+01 3.0534852570342571e+02  1.6993304598759610e+02 -1.5486764378466574e+02 3.6892805156569784e+02  2.0850329765541233e+02 -5.8280787199772192e+01 3.9607729099637089e+02  8.8488195915084745e+01 -6.9775699338788897e+01 3.0183835416106280e+02  1.2340899702066817e+02 -4.9711550440749072e+01 3.0592159733992230e+02  1.6527623781695985e+02 -1.4804427860009268e+01 3.2836644404685626e+02  8.1346840874213626e+01 -1.1369084339328205e+02 4.0204197096402811e+02  1.4067879591358434e+02 -1.2936319649694090e+02 4.8788037450454163e+02  2.4610275873506549e+02 -6.7296928203224473e+00 3.8812615793071069e+02  1.8949942979517593e+02 2.2073978484597067e+01 3.2040391802756886e+02  1.3864367066085615e+02 -2.5060773918882365e+01 3.0740138065171084e+02  1.3161419950114436e+02 -2.1041758580174886e+01 3.1884122740264939e+02  1.1385350346955227e+02 -6.4613187612894585e+00 2.7478687756690351e+02  1.1728933584221373e+02 -3.8255067540521971e+01 2.6764356299717639e+02  1.1109096264965640e+02 -6.9213999460346699e+01 2.4513292429184565e+02  1.9978196303189983e+02 -1.0815218215913114e+02 3.1141187977282777e+02  1.7087942139822599e+02 -7.9415377862664215e+01 3.6998969742990863e+02  1.4423569573089134e+02 -7.7561029050715973e+01 2.8443920726556365e+02  1.7052266190730680e+02 -8.0116371753029725e+01 4.2916390536388366e+02  1.2901693160295136e+02 -2.3477707806016827e+01 3.0077522138410376e+02  1.3117688473309718e+02 -3.2825505326153447e+01 2.7995544332907031e+02  1.7642476898055725e+02 -3.7396854156297570e+00 2.7697543181628930e+02  1.2888263215032478e+02 -1.3436017172421383e+01 2.7628907395180744e+02  1.5240983066536785e+02 -1.3321635365999704e+01 3.3472587691557851e+02  1.3106442061351856e+02 -5.0160135954589480e+00 3.4953243862486664e+02  3.8473403353930870e+01 -4.4965985598803018e+00 3.5435142822603524e+02  1.0399750967387855e+02 2.4061495176852259e+00 2.8639458203388898e+02  5.2976052210624715e+01 1.4417826376478455e+01 3.9221830058577132e+02  8.0392555196094619e+01 -3.8590246824713121e+00 3.9943847197860936e+02  1.1328128464891451e+02 -8.7900250181210247e+00 3.0431089218222638e+02  1.3603583511004217e+02 -2.5280812052468846e+00 2.9018366499630912e+02  1.1846669400229899e+02 -1.9096030289132738e+01 2.7452499861115848e+02  1.0117244589723383e+02 4.6280489777096578e+00 2.7132114195469853e+02  1.8447828307937039e+02 3.2921925369848623e+01 3.0354287867871193e+02  8.7230037470053446e+01 -1.0701055029548764e+01 3.5711931046122794e+02  5.1940425981373018e+01 -2.9930116580704752e+01 3.6202067812110454e+02  1.1101213910699136e+02 2.1595843146251372e+00 2.8883365995414954e+02  1.6937589008570731e+02 2.0778895127349866e+01 3.0442077824561875e+02  1.2555071823266132e+02 3.2596936116092486e+01 2.8614057800689591e+02  1.1725084347873428e+02 8.6400701962874198e+00 2.6390021024041505e+02  1.5523218472116542e+02 -2.8364686111659744e+01 3.7539296106317602e+02  1.5865816924749114e+02 -5.1437908957494564e+01 3.2253004170053958e+02  9.4914938431493809e+01 -6.0755530296679285e+02 9.3969663253580293e+01  9.2771316820985248e+01 -4.2665404102361867e+02 1.3262936710112388e+02  1.5551984051340369e+02 -7.1536532786370265e+02 1.9593289441685991e+02  -4.0086259572084138e+01 -5.4656313377896015e+02 1.8884559984239198e+02  8.8610118504426765e+01 -4.7710023004992877e+02 1.0191881897337659e+02  1.0496802095211424e+02 -6.2309638714625589e+02 1.1196013601097182e+02  6.8999315082683594e+01 -5.4442348737904047e+02 1.2498723054406661e+02  -8.2623572013078373e+01 -4.0514257817329417e+02 2.0814078189931934e+02  -1.4901483579573828e+01 -7.1306850478081242e+02 2.1401019719138142e+02  2.6187452930522483e+02 -7.0520515852109554e+02 1.9118359259233159e+02  1.3008138889782347e+02 -5.5889296144450134e+02 2.5925710169516282e+02  -4.8021560931234042e+01 -5.3029799162002826e+02 3.5311083913651856e+02  1.0850108331591228e+02 -6.5798109180024505e+02 3.4096054445973738e+02  2.1838327752070466e+01 -5.2135213184223562e+02 4.0235131727796158e+02  -2.2946228354552858e+01 -7.8058599406441817e+02 9.8043796493959533e+01  8.1095455926996635e+01 -6.3849129987051617e+02 2.5641131249424080e+02  3.6825771711415349e+01 -6.7122667619937351e+02 3.0043171302215831e+02  9.9329432524154228e+01 -6.3497498120930777e+02 4.2742912020904720e+02  2.9972040408599480e+02 -7.4254037495742602e+02 1.5706083516560543e+02  -5.7803288404133546e+01 -7.4771870990872969e+02 1.6851631921375576e+02  3.4316615883392394e+01 7.0646075837792466e+01 4.7822652170792956e+01  5.3860492617481675e+01 5.5475564963180481e+01 2.6864497000987164e+01  6.1078526703916346e+01 6.6148968902084917e+01 5.5513758265205396e+01  5.3341637346381006e+01 5.7158929204430883e+01 6.1129748011846033e+01  6.9470255300788693e+01 4.8692374440081849e+01 6.6960889845041905e+01  7.3516368860283734e+01 4.9447060344466216e+01 4.0109203713931407e+01  8.3233174044901773e+01 5.5235083266597599e+01 6.8021264968300471e+01  9.1753173766484451e+01 6.0349689324621600e+01 6.5172959665589772e+01  8.1094664864484656e+01 5.3215512099104103e+01 3.7371266816833135e+01  7.4209156199397299e+01 4.4620441119474727e+01 1.4548357955608511e+01  4.2203411911737879e+02 -8.8443914820473495e+01 -7.5111476391661483e+01  3.0104398422062695e+02 -4.8697357299833861e+01 -7.7550441445555435e+01  2.9944093707996529e+02 -2.9748404787951234e+01 -7.0980511015299797e+01  3.7233070185868604e+02 -6.9231817713065979e+01 -1.0808254774236646e+02  3.4456433027339864e+02 -6.1545120745523029e+01 -2.3896726623777539e+01  3.4004840824345524e+02 -3.5342123643841440e+01 -1.8155300633452185e+01  2.8416657622156117e+02 -1.2787922066433246e+01 2.3293589380954938e+01  2.9654438693684642e+02 -3.5919126234513506e+01 -7.1897157612275009e-01  2.8802419424876524e+02 -5.4602362035209659e+01 -4.0674551724436299e+00  3.3041655444421144e+02 -3.9627522086047442e+01 -1.8284877230771926e+02  -1.3963419357724334e+02 -2.4082445714643003e+02 -1.4751710906981197e+02  -1.4052751174002285e+02 -7.1212761907497367e+01 -2.0886877898951693e+02  3.2298045523064690e+02 -8.9965650835384008e+02 -6.4863164508706018e+02  -4.9093432325707752e+01 -2.1484623813905029e+02 -7.4809539016338434e+01  -2.0299795112221066e+01 -1.8413177418671344e+02 -1.8313293022599712e+01  -7.6644998112791010e+00 -3.0518441382919769e+02 -1.6381222670757430e+02  2.2835159933111640e+02 -5.5798614532707006e+02 -8.9597697238390666e+01  5.5953520060653170e+02 -1.7135122330967943e+02 1.9309013967612282e+02  2.4341452608055783e+03 -1.8832740757534666e+03 -1.6061766356339899e+03  -6.5501661288256616e+02 -1.8936458466878392e+02 -8.0401956550711745e+01  3.0779806969589593e+01 3.9402910615890562e+01 -9.8117482436534775e+00  4.9224526289881709e+01 3.0616719575015765e+01 -2.7938929678026977e+01  4.8938149682917278e+01 3.0746930863471629e+01 -2.5000005343266462e+01  5.1617863018529725e+01 3.5467936354664666e+01 -1.5813356965197315e+01  3.3931308306962890e+01 2.7327938543963786e+01 -2.9956993288802579e+01  3.8088815776465012e+01 2.0512621145861733e+01 -3.5517314047248490e+01  4.8959655141369680e+01 2.7250866835718632e+01 -3.2099684424806959e+01  6.8145390897321747e+01 3.3492216861367517e+01 -2.1700149473033271e+01  6.3751006043436718e+01 3.1796370812361825e+01 -2.6975221045687864e+01  6.0470301938957881e+01 2.9357965803604674e+01 -3.0608929169653678e+01  2.0023609356311195e+02 5.6689516779035984e+01 -1.1127816307807721e+02  1.6764418599807740e+02 6.5364339309949685e+01 -1.2011640937789814e+02  1.6261231559716953e+02 6.5497758655333286e+01 -1.2410640252750247e+02  1.9988535555598719e+02 6.2250679273716251e+01 -1.2002904871373495e+02  2.0054806283392745e+02 6.9922433678019260e+01 -1.2438806186618162e+02  1.7196582241908138e+02 7.1332315525217894e+01 -1.3010302342326267e+02  1.6941108766379500e+02 7.0406673531069885e+01 -1.3080872659596130e+02  1.5249667133881164e+02 9.1157119035580834e+01 -1.5693369543610169e+02  1.5551865897635909e+02 7.8695257962972263e+01 -1.5168735260891970e+02  1.5405755834992786e+02 6.8135875776862463e+01 -1.4949657699075871e+02  1.4462977462080400e+02 9.9413214167446313e+01 -2.6545557294894019e+02  1.8514826777333806e+02 9.0180585323195771e+01 -1.6372800620242589e+02  1.7843142502034414e+02 8.7931149114637861e+01 -1.6025204325012604e+02  1.7157776079990836e+02 8.4145096297790232e+01 -1.9102416643083362e+02  1.6535620091764250e+02 2.2098911652180311e+02 -2.0521078547400205e+02  1.9852429149871568e+02 8.8801539193184468e+01 -2.3225482185345282e+02  1.5677555651862693e+02 1.0315908403658429e+02 -1.6699809458580654e+02  1.8244906089565845e+02 1.2342486942570055e+02 -1.7255495287872455e+02  1.7913354776966395e+02 1.6443147953882266e+02 -1.4120069853468459e+02  1.9204819772363919e+02 8.0964529511314097e+01 -1.6958283925777343e+02  -1.6078052990716085e+01 3.8147625340172638e+01 8.4888575483050360e+01  1.0782490580500317e+01 3.5908820299443114e+01 6.7972637282075297e+01  6.3163478929951173e+00 4.1411809635024106e+01 5.9871901622468350e+01  -8.6455505745455579e+00 2.4171718943985848e+01 6.2349264853798879e+01  -7.5684437159583484e-01 2.3123197472206602e+01 4.9164310577404393e+01  2.1264046361595913e+01 3.7114504667939165e+01 4.1603478036262075e+01  1.1702050203603873e+01 3.0038905348799418e+01 5.0744279270096023e+01  1.0987356776116931e+01 3.7102766125872392e+01 4.3712130131904935e+01  8.3567363210162515e+00 4.2607808995099596e+01 3.6438585652486516e+01  3.0059452955536468e+01 3.2855380284020988e+01 4.6705324955648592e+01  1.2270933820407707e+02 9.2846319494878301e+01 -1.2712827630371847e+02  1.4446531376785654e+02 2.6378141328117049e+01 -6.2002662429738734e+01  1.4872463547955317e+02 8.2228913423679188e+01 -5.0333927511963012e+01  1.7890781231224952e+02 8.6778490023522167e+01 -9.1668463763108591e+01  8.1114476400852780e+01 7.3745828099703672e+01 -9.3783363006883960e+01  9.7446049750398288e+01 5.7626177475258284e+00 -1.0657175472914311e+02  4.7194450529049618e+01 2.8131963533292016e+01 -7.7059292477125609e+01  7.2914578154663914e+01 -2.4838564497353115e+01 -8.6294849033073106e+01  2.1099155004693259e+02 7.4502249969165959e+01 -5.7172881554051585e+01  1.0340017472478044e+02 -6.2447567068190850e+01 -8.4450797561109681e+01  2.1129701561727805e+02 -3.3426731273070124e+02 -1.0583416244707109e+02  1.9106846773773802e+02 -2.0758279831517180e+02 -1.2955795082643314e+02  1.6648847705765149e+02 -2.1196835902211333e+02 -1.2497570751418719e+02  2.1056219274534561e+02 -2.5487481735783541e+02 -9.7817747778232700e+01  1.5258866588247412e+02 -2.2827011933492483e+02 -1.8051440809972706e+02  1.8589728602055501e+02 -2.5975338268602428e+02 -1.0425579448545646e+02  1.3095717001410318e+02 -1.6867536890195035e+02 -1.6873417482412361e+02  1.7365334187396587e+02 -2.3629370485265221e+02 -9.2657135898668244e+01  2.0249805291474632e+02 -2.2610047162990560e+02 -9.2650774411227545e+01  2.3641229567442622e+02 -2.1805985028926912e+02 -1.0382952433902575e+02  1.4154502369074066e+02 -4.2563608253449115e+02 1.6398344218228306e+01  1.1206436382199607e+02 -2.6187967960845737e+02 7.9838895817538376e+00  1.6645764564459080e+02 -3.2302200796568729e+02 -2.3045783597470603e+01  6.9700848525718229e+01 -2.4011229209186200e+02 -1.7068866781181022e+01  2.5503726109153934e+01 -2.7051380011343542e+02 6.2818013457587277e+01  4.2764736006984933e+01 -2.1047214224162266e+02 3.0098213925794305e+01  7.8334317048890256e+01 -2.0191445151548172e+02 -9.1457002298784058e+00  9.3948007638815255e+01 -1.7926259470270716e+02 -3.5087556119280045e+01  1.1621000659666241e+02 -2.3513761341478232e+02 -3.4587880756226504e+01  1.5449060912262718e+02 -2.6885407206618686e+02 -3.8226850732092110e+01  7.7178182496440954e+01 1.1038593096691646e+02 -9.8521954478988206e+01  1.1171148144546990e+02 9.6304404648950069e+01 -1.3142028819568569e+02  9.5516008667159227e+01 9.7029954135043766e+01 -1.2821770658142538e+02  9.9136809983275441e+01 8.5713686838425289e+01 -1.0875762312622138e+02  8.9252118314830639e+01 1.1645093736680784e+02 -1.2183479981993517e+02  6.4933537513151535e+01 1.1924788940792716e+02 -1.2032170193694698e+02  6.2398575054358759e+01 1.0387314826638244e+02 -1.2314865609414672e+02  2.6364015138779404e+01 1.2571720206949180e+02 -1.1821399593571539e+02  8.3217800301081226e+01 1.2623410742766444e+02 -1.4603858985058071e+02  1.2594057586074696e+02 7.0281784419690140e+01 -1.1090174186810577e+02  5.7781104865972134e+02 -2.2426722468048641e+02 -2.0822106034217225e+02  4.2336769718675606e+02 -1.3665775569949665e+02 -1.1954446471796378e+02  4.7014482763719508e+02 -2.1429080191050878e+02 -1.2487445226882440e+02  4.8692534232603731e+02 -2.1915003132572770e+02 -1.8453984634728315e+02  5.0036059694554592e+02 -1.3133856667085615e+02 -9.7055081247859604e+01  3.9866866232373565e+02 -2.0264013464687966e+02 -1.7539465401960939e+02  3.9586436003382477e+02 -2.0247239284920951e+02 -1.1851702153544039e+02  4.2079874358304801e+02 -1.4564113062585969e+02 -1.1018798235624583e+02  4.7316840033288480e+02 -2.1657965987894138e+02 -1.4975425205162054e+02  4.8848328927132371e+01 7.4975267817715959e+01 3.4813475221930759e+01  1.1355021519369203e+02 2.1226015324818839e+01 3.0374051229999939e+01  6.5348084958620490e+01 5.5812118115508504e+01 2.6638677136683985e+01  6.9754427017099928e+01 3.9812868796023963e+01 8.2558268588211874e+00  9.2202927260066701e+01 2.1268117333535063e+01 4.0624521465186213e+01  1.8336355551559200e+02 -3.4147722865087260e+01 6.6611587573073194e+01  1.2445881077822688e+02 -1.2270364043350968e+00 2.4028134051218196e+01  8.8440822415328171e+01 2.1217222279380589e+01 -7.1570179530375979e+00  8.1810273166879682e+01 3.2262935129236993e+01 1.8604667126233532e+00  4.2328242492693050e+02 1.7075393549616572e+02 -1.7146954435954947e+02  2.8752537034995970e+02 1.2977505093537545e+02 -9.0744177414254040e+01  4.6816143144656093e+02 1.6710484376542985e+02 -8.4788841934056663e+01  2.0653265864342211e+02 1.9561377464747747e+02 -1.2130830288996462e+02  1.6745467980627836e+02 1.6448482787750314e+02 -6.2703955899332378e+01  2.8525166109280838e+02 2.0414679915945203e+02 5.0070303462024803e+01  2.3592145643443371e+02 1.1472659313679880e+02 -3.0994233409967279e+01  9.3625990257431539e+01 -2.3569359950613219e+02 -1.0489483360114799e+02  1.5823803762647475e+02 -2.5675191720288529e+02 -9.4936198272579205e+01  1.2603583628542343e+02 -2.4000283599471680e+02 -1.5803282883629029e+02  1.3777699692068862e+02 -2.3299053438139984e+02 -1.4837732124700216e+02  2.4334206697187872e+02 -2.5828795660116447e+02 -1.9217532927267752e+02  2.0641353408027055e+02 -2.5579927755208587e+02 -1.0955107801448729e+02  2.2538518910216766e+02 -2.6452317348740843e+02 -1.0869797020166682e+02  2.3013756990524075e+02 -2.4195959153014465e+02 -1.9836444373577820e+02  1.9206884030636016e+02 -2.3816896378758500e+02 -1.7961040358956592e+02  2.0729567837213744e+02 -2.7567136772677389e+02 -5.6632411317013201e+01  7.8723412098597777e+01 -1.7981630011538149e-01 -1.5030809655010531e+01  1.2488253019037599e+02 -3.6625812709371459e+01 -6.0224088504794722e+01  1.6349144180440936e+02 -6.8855628514613784e+01 -1.0455770379786182e+02  1.0640610084718129e+02 -9.1422739081063620e-01 -2.2015238552098985e+01  9.1686743716999672e+01 -5.3266777383990089e+01 -6.0137393589583482e+01  9.6316386230185742e+01 -5.9660515192879569e+00 -6.7273372790592560e+01  1.2210904251644233e+02 -9.6506017108342263e+01 -7.8181110144183563e+01  1.3823835867532344e+02 -2.2747348684410582e+01 -1.2112952737369416e+02  1.2641013365717929e+02 4.3986333049542727e+00 -5.6786006432852389e+01  1.3128032275833721e+02 1.6978468355975327e+00 -2.5205822144829462e+01  2.0000586262762624e+02 3.8928386514275694e+01 -9.6184196352330261e+01  1.4169723563136341e+02 4.0416771583980641e+01 -6.8810777473905929e+01  1.5296939934846816e+02 5.2831416430419935e+01 -1.0085244808138454e+02  1.2575402709493885e+02 6.0831460842115078e+01 -1.0078329901650777e+02  7.1811840149134497e+01 1.1194860224410284e+02 -9.9547794205477857e+01  1.1152847958186631e+02 6.1451268266244000e+01 -8.0033572585689740e+01  8.4809506102314472e+01 7.7869927187006382e+01 -6.1819726380019247e+01  1.0655004137371816e+02 8.2409555073437048e+01 -1.0596762923317362e+02  9.7157950290374245e+01 4.7549965705429642e+01 -4.2707139525879867e+01  4.7434060498659937e+02 -1.0367367320337091e+02 -1.3604214025355435e+02  6.6746485052945275e+02 -1.8931164711327489e+02 -2.1018201978735331e+02  4.3493437261255917e+02 -5.5258142987620467e+01 -2.1218327407498910e+02  5.6707493371258931e+02 -2.2822070456905263e+02 -1.8790118761160096e+02  4.0219393376165704e+02 -1.0100428644561201e+02 -1.9244189727552993e+02  1.2961302425615216e+02 6.0375628351891869e+01 -8.2572247463192294e+00  2.3720486627703434e+02 2.3359465909066124e+01 -9.6140301630075911e+00  2.4400658479710688e+02 -5.1803916248302251e+01 -4.4969531913153141e+01  1.8927183473664954e+02 8.2933184288896300e+01 3.4948326722612727e+01  2.0391542168552675e+02 1.4992015375006693e+02 7.9372190284241910e+01  3.9358546071010005e+02 5.4385324319188356e+01 8.9703034087107099e+01  3.5654850341735846e+02 -1.2015564935915799e+02 -3.7034804149193619e+01  2.2458727987131465e+02 -1.0477227417468954e+02 -1.1352586173700705e+02  3.3195810593605285e+02 -3.6591687946784575e+01 -9.8478155858822774e+01  8.7022995091809449e+01 -3.9887422925183319e+02 -2.8692804732498015e+01  9.7306221705301596e+01 -3.0058877783916506e+02 7.2889982005877121e+00  9.4710254205839419e+00 -2.6170294589860413e+02 1.1106907040783994e+02  1.6387356632665001e+02 -4.5856012463056402e+02 6.5249270114744540e-01  7.2925594717847702e+01 -3.0884093330406301e+02 3.9952349547904120e+01  8.7169734319166579e+01 -3.4815734738884134e+02 -8.3170521105168937e+00  6.7382007243214730e+01 -2.5140226508891905e+02 4.8719326152861925e+01  9.8934127280683711e+01 -2.6478096252858506e+02 3.0736220366845764e+01  1.0620806076871956e+02 -2.8763464865153333e+02 -3.5179825963356862e+01  1.7227128506341040e+02 -3.5899880838769712e+02 5.7628573569948493e+01  1.9422685622956720e+02 1.6000599672209478e+02 1.4029880439901055e+02  2.7948853185345536e+02 8.4837621845081486e+01 2.9599972612607608e+01  3.8166084746771895e+02 6.8805375219111525e+01 1.9128977264944695e+01  3.4921998482068284e+02 1.1189368717284060e+02 2.6563378135145445e+01  2.2186737575490486e+02 9.1615862474589932e+01 6.2503306020040821e+00  2.9363598122627985e+02 1.5198168895787089e+02 1.8434178758826422e+02  3.8419989466059229e+02 8.9647001140607316e+01 1.4958328408916108e+02  3.6144235358892291e+02 6.4642942987440890e+01 -7.9038653337939778e+01  2.8768830199396120e+02 8.4098094143965753e+01 -5.8790338216853350e+01  1.2014933231830818e+02 -1.4088082751125368e+01 7.5330525961606568e+01  1.4882388630745930e+02 2.7581224135735091e+01 1.3128402600909851e+02  1.6526301223440308e+02 3.3438363142945924e+01 9.6989452515056612e+01  9.8525615399868386e+01 6.0476830640636138e+01 1.0052097287067500e+02  1.3887632667149094e+02 1.6004207688191151e+01 6.0878296549006315e+01  9.8696888928469264e+01 1.9561124819995346e+01 1.2446309783027593e+02  1.2851517458713695e+02 3.8280982548464891e+01 7.5252085495244415e+01  1.1124025879545421e+02 1.8179700571826942e+01 1.2435622492403969e+02  1.4628057399987208e+02 4.0625538318022762e+01 9.7355388716242246e+01  1.7117177178754025e+02 5.4926474222994621e+01 7.1379471917100204e+01  1.8441712552911525e+02 9.8249426966245167e+01 -1.4555375378512224e+02  1.9118142539154184e+02 1.0382428140979816e+02 -1.3777571507607232e+02  1.9734239299701105e+02 1.0891668555577115e+02 -1.3141091509938531e+02  1.8511570772394063e+02 1.1150996134045361e+02 -1.3007665533636202e+02  1.9492740128368087e+02 1.0713020053839647e+02 -1.2204796809708932e+02  2.1131140042517322e+02 8.1346159255163826e+01 -1.4879019484149077e+02  2.2339213103000316e+02 8.2208160799940799e+01 -1.1454952087108281e+02  3.4096289710116162e+02 4.8195115532298125e+01 -3.3640050286214966e+02  3.6070488877612610e+02 7.4232018459037405e+01 -1.5377785471776056e+02  3.2972529714664648e+02 5.9885464969899502e+01 -1.98122