<?xml version="1.0"?>
<VTKFile type="UnstructuredGrid"  version="0.1"  >
<UnstructuredGrid>
<Piece  NumberOfPoints="5690" NumberOfCells="25587">
<Points>
<DataArray  type="Float64"  NumberOfComponents="3"  format="ascii">18.7054919972 32.1668590874 15.9219652243  18.86535134835 31.29890856245 15.38214217765  18.1130956461 31.4452906797 15.7768337852  18.7131398432 30.9316933984 15.90231259235  18.7207876892 29.6965277094 15.8826599604  18.27295499725 30.57734015475 15.23701073855  18.87299919435 30.06374287345 15.3624895457  18.1207434921 30.2101249907 15.75718115325  17.520699295 30.723722272 15.6317023461  19.0252106995 30.4309580375 14.842319131  16.7063781985 24.362441522 13.1827394144  15.5287171788 24.66884515105 12.7063610538  15.9418161735 25.18256191945 12.45923341145  16.09449917535 25.16551608145 13.14548926975  15.68140018065 24.65179931305 13.3926169121  16.55369519665 24.37948736 12.4964835561  16.4010121948 24.396533198 11.8102276978  15.4826201522 25.9685906409 13.1082391251  15.0695211575 25.4548738725 13.35536676745  14.6564221628 24.9411571041 13.6024944098  17.6011388179 24.2669462429 19.0768045694  16.2886439392 23.9430080857 18.5656627587  16.75001239125 23.96415486465 18.52467631695  16.7919410935 24.58651476255 18.69308160285  17.0978416636 23.62343956605 18.94938572525  16.5945445093 22.9799328892 18.8219668811  16.24671523695 23.3206481878 18.3972574728  15.9827433691 24.9060832822 18.3093586363  15.94081466685 24.2837233843 18.1409533504  15.8988859646 23.6613634864 17.9725480645  16.6398519096 21.4967381281 14.0850805482  16.59983929025 20.5430054222 14.58121670535  16.5015171174 21.2955198584 14.76134585525  16.00292291225 20.8738841409 14.46036875865  16.73817408245 20.7442236919 13.9049513983  15.3659939149 20.2510301537 14.8356569691  15.86458812005 20.6726658712 15.1366340657  16.3631823252 21.0943015887 15.4376111623  21.9472806715 31.4425981792 15.6924087083  22.34063647975 30.34561768335 15.6262056365  21.7859701234 30.14099238675 14.9737441856  21.8831402715 30.81460861205 15.93344429525  22.40477687975 30.9736072505 15.38517004955  21.32847391515 30.60998331545 15.28098284435  20.7096671588 29.7773684517 14.8695569804  21.26433351515 29.9819937483 15.5220184313  22.862273088 30.5046163218 15.0779313908  21.8189998715 30.1866190449 16.1744798822  24.1986559629 32.3727485135 15.3281101285  22.71183575725 32.14828681995 15.44799759495  23.49915122245 32.1156051968 14.9232372894  23.4309469233 32.76314586195 15.26016906675  23.4113404977 32.40543013665 15.85287043405  22.6632378837 33.1535432104 15.192228005  22.6436314581 32.79582748510001 15.7849293723  22.73144218285 32.50600254525 14.85529622765  22.6240250325 32.4381117598 16.3776307396  22.799646482 31.8584618801 14.5183644503  21.1236012497 26.2162381555 15.6512943872  21.4602722151 26.6769574778 14.8193888173  21.82189404065 26.02645825735 14.80978738255  21.8229060445 26.2177616205 15.40548150505  21.46128421895 26.86826084095 15.4150829398  21.12258924585 26.02493479235 15.0556002647  21.121577242 25.8336314292 14.4599061422  22.5222108393 26.2192850855 15.1596686229  22.16058901375 26.86978430595 15.16927005765  21.7989671882 27.5202835264 15.1788714924  18.9042850038 25.2955660763 16.3543921772  18.38163428105 25.1410956076 17.8834070022  18.37271737115 25.8497497485 16.78513288965  18.209131055 24.99252495905 16.8408516047  19.07678822985 25.44413672485 17.3969475747  19.2492914559 25.5927073734 18.4395029722  18.5452205972 25.99832039705 17.82768828715  17.5139771062 24.6894838418 17.3273110322  17.67756342235 25.54670863125 17.27159231715  17.8411497385 26.4039334207 17.2158736021  24.0227172303 30.9013178272 17.7443932863  23.14092516915 30.1457481963 17.4803412342  23.1219033298 30.78922300175 17.55610586985  23.95949878595 30.65049656675 17.1837190918  24.04173906965 30.25784302175 17.66862865065  24.060760909 29.6143682163 17.592864015  23.9785206253 30.0070217613 17.10795445615  23.8962803416 30.3996753063 16.6230448973  23.05868488545 30.5384017413 16.99543167535  22.2210894293 30.6771281763 17.3678184534  22.0471701257 22.1011995108 18.5206643085  22.5761685861 23.34622042835 19.1745590854  22.0416435016 23.35510733735 18.89297584945  22.4884997547 22.41041152495 18.32494162215  22.5816952102 22.0923126018 18.80224754445  23.1162202947 22.0834256928 19.0838307804  23.0230248392 22.40152461595 18.6065248581  22.9298293837 22.7196235391 18.1292189358  22.4829731306 23.6643193515 18.6972531631  22.0361168775 24.6090151639 19.2652873904  22.0513342641 29.3096386055 15.1728521044  21.40801694905 28.85167181635 15.02985020325  21.92515072615 28.41496106595 15.1758617984  21.71057910635 28.67433494335 14.4327984607  21.3698239486 28.0390312812 13.692744817  21.0672617913 28.2163681542 14.28979655955  21.5843955684 27.7796574038 14.4358081547  21.2818334111 27.9569942768 15.03285989725  20.764699634 28.3937050272 14.8868483021  16.7716817054 32.1525758681 21.1964269128  17.6868186149 32.00358868505 20.4174478205  17.8142645311 32.47097102145 20.6744137992  17.600506924 32.04751221905 21.09649339675  16.9854393125 32.5760346705 20.77434731525  16.8579933963 32.1086523341 20.51738133655  17.1991969196 32.9994934729 20.3522677177  17.0717510034 32.5321111365 20.095301739  16.9443050872 32.0647288001 19.8383357603  18.4293321426 31.94244857 20.9965598807  13.4010221058 22.9879570079 14.5544444222  14.2159587371 22.39441598945 14.37586945365  13.928912123 22.59535923685 13.72685975655  13.29616021665 22.40066036755 14.1586579121  19.2293079393 30.7557836681 20.9429312059  20.2162950398 30.2467280113 20.29812700835  20.22297637075 29.9374797256 20.987158886  19.99433388135 30.64737767125 20.8986743961  19.4579504287 30.04588572245 21.0314156958  19.45126909775 30.35513400815 20.34238381815  19.6865929181 29.3359877768 21.1199001857  19.67991158715 29.6452360625 20.43086830805  20.7593598234 30.5389716744 20.8544175863  19.6732302562 29.9544843482 19.7418364304  20.1596451967 21.3790036597 17.8200322297  19.4352437492 21.6970559531 17.9799157101  19.15357492395 21.07407921195 17.6205195058  19.73185677265 21.53296123735 17.33332653695  19.3040683486 21.686918815 16.8466208442  19.00745532515 21.85101353075 17.49321001735  18.7257864999 21.2280367896 17.13381381305  18.1475046512 20.7691547642 17.4210067819  18.42917347645 21.39213150535 17.7804029862  18.7108423017 22.0151082465 18.1397991905  20.7026436249 35.5638767452 16.3603955453  21.7287612389 34.8956967185 16.33807789065  21.1900984144 34.4636955344 16.57296204775  20.61462211455 35.15389075915 15.9137013833  20.5266006042 34.7439047731 15.4670072213  21.64073972855 34.48571073245 15.89138372865  21.10207690405 34.05370954835 16.12626788575  21.6775532039 33.3635143236 16.7855285502  22.2162160284 33.7955155077 16.5506443931  22.7548788529 34.2275166918 16.315760236  17.385195504 32.52101271765 21.2581842969  17.43727150885 32.1392267063 21.57625213875  18.1028613123 32.1258775445 21.9560773647  18.2140207226 32.4159490686 21.15825078085  18.26609672745 32.03416305725 21.4763186227  18.05078530745 32.50766355585 21.63800952285  17.9987093026 32.8894495672 21.319941681  16.2560596725 30.5627687097 24.558132521  16.30877603345 31.2059968879 23.88868053645  17.1580142135 30.51505000545 23.879114121  16.1500991964 30.7300892644 23.99096686515  16.41473650955 31.0386763332 24.4558461923  16.5734133466 31.5145839567 24.3535598636  17.31669105055 30.99095762895 23.7768277923  16.0441387203 30.8974098191 23.4238012093  17.0520537374 30.68237056015 23.31194846515  18.0599687545 30.4673313012 23.200095721  23.22876983495 32.9625591762 14.56338750985  23.99647887455 32.57216182775 14.6313285716  23.7943017862 32.771575142 13.9345470147  23.2969741341 32.31501851105 14.2264557325  16.7413075446 21.1858421277 16.8219817548  16.50557123415 22.3328642875 16.8855425011  16.4704870796 21.74002336165 17.2100159021  17.1869011272 21.93470370515 17.062504565  16.77639169915 21.77868305355 16.4975083538  17.6324947098 22.6835652826 17.3030273752  16.9160806622 22.4888849391 17.4505387123  17.22198528175 22.527544631 16.738031164  16.8114758537 22.3715239794 16.1730349528  16.1996666146 22.2942045956 17.5980500494  20.9394747063 26.3231522409 18.0481785599  21.450450719 25.8133294019 18.76953791715  20.85676180115 26.3164028102 18.85814142885  21.8043269684 26.09906515795 18.85199399195  21.53316362415 25.8200788326 17.9595750482  22.6691792305 25.874978075 19.655809424  21.72161406325 26.09231572725 19.6619568609  22.39801588625 25.59599174965 18.76339048025  22.126852542 25.3170054243 17.8709715365  20.774048896 26.3096533795 19.6681042978  21.7422937791 26.01545042605 14.0729046809  21.40285923535 25.36402270745 13.90395671265  21.03576135 25.754073274 14.04818203725  20.949945458 25.6745151188 13.6364579323  21.6564778871 25.93589227085 13.66118057595  21.31704334335 25.28446455225 13.4922326077  21.6841412287 24.8944139857 13.3480072831  22.02357577245 25.5458417043 13.51695525135  22.3630103162 26.1972694229 13.6859032196  14.6254361189 29.1779203344 18.2991971793  15.4039045862 28.48643864065 18.18583639035  15.389307014 29.06849889475 17.9302459636  15.03499813465 28.75608131445 17.76819913645  14.99434257045 28.9082776606 18.7168344332  15.3486514498 29.2206952409 18.87888126035  14.97974499825 29.4903379147 18.46124400645  15.3340538776 29.802755495 18.6232908336  15.363249022 28.6386349868 19.1344716871  15.4445601504 28.3342422945 17.2372010936  20.0948761352 33.6069003979 15.8392471286  20.5681088816 32.6175212423 15.30684866385  20.3154545963 33.0734142994 14.82578460685  20.4750881945 33.6229261457 15.2175265912  20.7277424798 33.1670330886 15.6985906482  19.935242537 33.0573885516 15.44750514425  19.7756089388 32.5078767053 15.0557631599  20.8553002538 33.6389518935 14.5958060538  21.1079545391 33.1830588364 15.0768701108  21.3606088244 32.7271657793 15.5579341678  14.206965162 24.5516475763 18.0440269111  14.97338745615 25.2025455201 17.838698951  14.8595104262 24.81
[...]
<PointData  Vectors="u"> 
<DataArray  type="Float64"  Name="u"  NumberOfComponents="3" format="ascii">2.2147068267360918e+01 5.1783441573385742e+00 -2.9704401180438507e+00  1.9767216194717470e+01 3.3398443842831509e+00 -2.9461972409602306e+00  1.6179347942979454e+01 2.8235358810713169e+00 -4.8538152942092454e+00  1.9397490696594453e+01 4.1979823874256699e+00 -5.7524768887321782e+00  2.2027811307263296e+01 5.8909080719252973e+00 -7.4991414845633759e+00  1.6825226819111517e+01 4.0931042934931492e+00 -4.2250554525390376e+00  2.1426176277330693e+01 4.1587364304301246e+00 -5.0525340055178445e+00  1.7348351244287304e+01 5.9756291672234774e+00 -6.7357247631565373e+00  1.3106794272656256e+01 5.3500415453289358e+00 -6.4143714538556802e+00  2.1672207333244049e+01 1.9107889987591242e+00 -1.8858893734592015e+00  7.5961895014875092e+00 3.1006191498364039e+01 -1.2948479595912522e+01  1.0323566702132775e+01 2.9290227059516177e+01 -9.2000105528953320e+00  1.2055731941170706e+01 2.8411428799739415e+01 -1.2442305416459439e+01  9.3593894536074274e+00 2.7423749294666418e+01 -1.1352617700050265e+01  7.8852761849620414e+00 2.8180362137569631e+01 -8.6266312891624555e+00  1.1065398023684166e+01 3.1552572049395188e+01 -1.3520377163104047e+01  1.6915289291952114e+01 3.2582992244326007e+01 -1.5112939820120117e+01  8.8541623784391223e+00 2.4860045161460739e+01 -1.0703357600296368e+01  7.9563007325267119e+00 2.5933643150072054e+01 -8.3515862014667821e+00  6.4379269179472471e+00 2.6158333294051619e+01 -5.5489908442011187e+00  2.6715962618983248e+01 1.7209905517973567e+01 -1.9841354150126197e+01  1.3856346685352664e+01 1.7195562908857667e+01 -2.1741739221687293e+01  1.7428026968851309e+01 1.7849971471610040e+01 -1.8811208421878558e+01  1.9047511869418884e+01 1.8138290846495511e+01 -2.1243095969116503e+01  2.2169958244855266e+01 1.6672879378169682e+01 -1.9534277403654968e+01  1.6804767924648434e+01 1.6152658652231821e+01 -1.9616247046760193e+01  1.1646589581970803e+01 1.7196968939663844e+01 -1.8494742834205628e+01  1.1545800093457965e+01 1.8259429853920505e+01 -2.2322826274973327e+01  9.4533555306807848e+00 1.7632009410880567e+01 -1.9900029650269612e+01  7.1200733685418482e+00 1.7712915318688491e+01 -1.6786116215256641e+01  8.7382310906910143e-01 3.0514239325145819e+01 4.9251027947577839e+00  3.1708634913478289e+00 2.3098674097873452e+01 7.2375693070099185e+00  2.3776991196390727e+00 2.6333079486102431e+01 4.8779486898761562e+00  3.4219690600745332e+00 2.6336072843094538e+01 5.4701191080958393e+00  2.2132041796745636e-01 2.4997857132524530e+01 9.4494766127071248e+00  6.3618949297345422e+00 2.5208821108963498e+01 6.0442497044274566e+00  4.9312801637866155e+00 2.4239291700458161e+01 4.6737626136971997e+00  4.2686425447456111e+00 2.3847558510352133e+01 3.6194874686356737e+00  1.1553732437489009e+01 -5.5774157123491621e+00 -4.6750175739913464e+00  1.2361143911767483e+01 -8.1394321520693307e+00 -1.5901655623464109e-01  1.8077113645463697e+01 -4.1975953150273986e+00 -1.0100304725888753e+01  1.5026600107055314e+01 -6.8107243262642134e+00 -1.9197330880655159e+00  7.2395990302844861e+00 -7.8505949544707265e+00 -4.6910706762481755e+00  1.8479593307854373e+01 -3.0174185459060698e+00 -5.5299821946981149e+00  2.4308828224821788e+01 -3.0863388485516796e+00 -7.7399708260000715e+00  2.1577725620351888e+01 -2.6275632578566777e+00 -5.3521906972479067e+00  1.7670332760591283e+00 -9.3151300731314546e+00 -9.4792704638544638e+00  2.5879787192151735e+01 -1.4897220346508666e+01 1.8112008603768071e+00  1.4802838017041271e+00 -4.5031753537087855e+00 -4.5493364631286024e+00  4.7183286903106190e+00 -4.4226965734275998e+00 -5.2040651255062711e+00  1.9921890391137400e+00 -4.7494221728045041e+00 -3.9316818513317755e+00  1.8774537060493675e+00 -2.5927758515424419e+00 -4.4843070354854033e+00  2.2328749300457060e+00 -4.4837057468829187e+00 -5.6544595830421702e+00  2.8742360231322364e+00 1.3847593167607666e-01 -5.1925964440134251e+00  3.8932431477858853e+00 -1.4350799568466310e+00 -5.9550591639350516e+00  4.0250919814660451e+00 -2.9700482302979090e+00 -4.6336294462047736e+00  4.9724340081658474e+00 -3.8059818218596617e+00 -5.9908719695989960e+00  6.8768703802241682e-01 -8.2182875075161999e+00 -9.4155773993908589e+00  1.2976495930394650e+01 -9.6011624049339801e+00 -1.9918438968496094e+01  1.1630987704747980e+01 -5.8900068921921216e+00 -9.0654865904951993e+00  9.5626799337347155e+00 -2.1356975950924939e+00 -4.1491237873582119e+00  2.6761890486436005e+01 -1.7225877246569750e+00 -4.5910857824438285e+00  1.9293759693469216e+01 -4.3584256043573077e+00 -1.1764872648854551e+01  3.9014153848873709e+00 -9.3069045414078104e+00 -9.0679941698076902e+00  2.7712864007148990e+00 -5.7974616185745420e+00 -4.9654930837313014e+00  3.2864501221238989e+00 5.4414734357794803e+00 7.6180297247600155e+00  1.8953564169555456e+01 -6.6112496546260724e+00 4.9699351742108639e+00  2.5203983294801862e+01 4.3124728362638637e-01 -7.7115672672175517e+00  2.5853012202476123e+01 2.7297849029843313e+01 9.9212441129167619e+00  2.9153392971552066e+01 2.1011794275965229e+01 -9.6120906625491784e+00  2.3925297569547766e+01 2.3097372484869183e+01 -1.9738896591548214e+00  2.1298672614181672e+01 2.4196141167309676e+01 -4.2265672388464354e-01  3.4333547668358854e+01 2.2322387438624734e+01 -2.2299701987138332e+00  3.8536615835373404e+01 1.8153874982430956e+01 -1.4231926429454106e+01  3.0275409315207206e+01 1.9772205145122445e+01 -1.0848735817697635e+01  1.8020386964362771e+01 2.1949775535982447e+01 -7.6931790567634666e+00  2.0194840769935706e+01 2.1613553953021615e+01 -8.6144789929379861e+00  2.1857833109242865e+01 2.0713683884115547e+01 -9.5424165044960407e+00  -1.6819816806101786e+00 -1.3420665178903954e+01 -7.5579431074544647e+00  -1.6673209667496273e+01 -1.1439166275507240e+01 -3.9925714447089300e+00  -9.0241717844368612e+00 -1.5610048046167881e+01 -5.0471858469394961e+00  4.8990196849815598e-01 -1.1776778859395609e+01 -4.0513083269958088e+00  1.4234213173492344e-01 -1.0055993505777938e+01 -6.2494744248480023e+00  1.1381565471445927e+00 -8.1781104187960825e+00 -4.1294419841287970e+00  2.4034403058528357e+00 -8.6862239009945181e+00 -2.8703188692619359e+00  4.4961234619322008e+00 -9.9173364218746514e+00 -3.2253349713789294e+00  -1.7992239962752489e+01 -1.6605872058156159e+01 5.3809863048568971e+00  1.8359692876490865e+01 -3.4322452047867912e+01 1.8779337404206566e+00  1.3690583814670015e+02 2.9360271860075642e+01 1.5103566739940469e+01  4.0362279288126587e+01 -5.7298878215828928e+01 -9.2182833150017041e-01  9.1170777061273299e+01 -1.1920376523245990e+01 -1.9818151395279102e+01  8.3303488984057665e+01 -1.1040874733806394e+01 1.1289095572703017e+01  1.2761201473437836e+01 1.4853066223062571e+01 1.3877310674612852e+01  -8.3114852458593248e+01 -3.1658715315286741e+00 -2.5018880941139692e+01  -4.2084035066965889e+01 4.3775216920478819e+00 -7.1588135579507073e+00  -4.4611803008417667e+01 1.2570136979254128e+01 1.0092391707978557e+01  3.6006905360231976e+01 -2.1118493237569204e+01 -5.1455128945407168e+01  4.4878660602252829e+01 5.9069886243680161e+00 -2.5858467967113377e+01  1.6281261552908006e+01 -4.6502433126135569e+00 -4.7971627520069493e+00  2.1736270278379237e+01 -3.8793193985115995e+00 -7.3562370707405673e+00  2.1519735694849579e+01 -1.0444901876489489e+01 -4.2914733411330452e+00  1.9330936672152458e+01 -6.8035258327210997e+00 -8.5451904134117473e+00  1.4010077889874303e+01 -3.8555827147109047e+00 -6.5788914190879968e+00  1.8225451543572952e+01 -6.4796170960381971e+00 -1.0936934808068713e+01  2.0634621327479962e+01 -3.8943123355654254e+00 -7.6779017670562464e+00  2.1166945376040140e+01 -5.2569456932233480e+00 -9.9060180139647294e+00  2.4148897730268050e+01 -5.4621227934921768e+00 -1.2266412417306087e+01  1.7211461811016228e+01 -1.5229945117878666e+01 -5.8150163352071310e+01  2.0252555272042198e+01 -7.3829046785991812e+00 -4.8693631429432685e+01  2.0849498212687447e+01 -1.7228735188210724e+01 -5.9101167928433043e+01  2.0135967973963556e+01 -1.3851196890513148e+01 -5.6429661341945717e+01  1.1855447417630451e+01 -2.0615652225022377e+01 -6.3712461221274530e+01  4.9599211496522031e+00 -1.0145780652210753e+01 -5.8286782021051522e+01  1.3081482564292253e+01 -2.1666408164689212e+01 -6.1507216910719073e+01  7.8697026085646815e+00 -1.0214101840887142e+01 -4.9192496038974376e+01  8.9225975126056978e-01 -6.5821708181664196e+00 -4.3211018359403155e+01  4.3414632269037291e+01 -1.3055930691170280e+01 -6.0658474171112644e+01  -2.5700686097729539e+00 2.9891223415695510e+01 3.6801310045091058e+00  1.8647887946139310e+00 2.9843085369712981e+01 2.1867752492111512e+00  3.0557006177359849e+00 3.1183021486212070e+01 2.2162546243397117e+00  -1.4387381611062719e-01 3.1474656982100232e+01 5.1868978125708995e+00  5.6276124717028331e+01 3.0507804749230307e+00 -3.2701762236970254e+01  4.0646017369331808e+01 6.8917243355221309e+00 -6.0824418581187381e+00  4.7468977095719779e+01 8.7171344714245151e+00 -7.6580505365501417e-01  4.7850113351901555e+01 5.4243192291043414e+00 -8.5580959867855597e+00  6.1295317761303032e+01 1.0319802092013804e+01 -2.4931491602954257e+01  4.3527908411765317e+01 7.0076056515507403e+00 -1.8089006104416324e+01  5.8532599460238181e+01 8.4155512523382221e+00 -2.3159869265181882e+01  4.5875137632013129e+01 7.6660146242825284e+00 -1.6762501111809772e+01  3.8375269705438761e+01 7.9063553789570733e+00 4.1935536249602934e-01  3.7423398109205884e+01 6.4566716629268903e+00 -1.5511041114581246e+01  3.5811753937142676e+01 3.8165258069908916e+01 2.9026881894366827e+01  2.8883126573132262e+01 2.8365190796334659e+01 1.3485511837359370e+01  1.7589217169684531e+01 2.6391581716398413e+01 1.3268517255659381e+01  1.5974671728924568e+01 3.4035273607406928e+01 2.5057992138680092e+01  1.2305415612874349e+01 2.9064631212844084e+01 1.8321741409954729e+01  2.1031954275817668e+01 2.6985152920055874e+01 1.1371579899793870e+01  1.2828387651442711e+01 2.4683902705530926e+01 1.0609675580417651e+01  1.2599510676455585e+01 2.1507740681006776e+01 5.1241781698285793e+00  1.8540288198899219e+01 2.2975669108779822e+01 4.8976545675474963e+00  2.5846544881127457e+01 2.3162080973170333e+01 3.3490343547595094e+00  3.5531113553608558e+00 1.0305330725837003e+01 -7.2836988429906890e+00  1.3747201093042467e+01 1.5963686332242348e+01 -1.1014015949776091e+01  4.4790568348254167e+00 8.8417716210654262e+00 -7.9043842446098251e+00  4.1283166984326858e+00 9.3551933921703281e+00 -5.8355888143628123e+00  4.0690924648322477e+00 8.9451549659913212e+00 -5.3376519850296660e+00  5.9361497708434179e+00 9.7388064907884981e+00 -5.5893763260383942e+00  4.8558377999833580e+00 7.7527818682212013e+00 -6.7801894339404694e+00  5.3748512658969343e+00 2.9064459066607111e+00 -7.4325539998811392e+00  1.2250874329898176e+00 4.3057672382965944e+00 -7.7959996124383180e+00  -1.2456800356233060e+00 9.2616998142549125e+00 -9.0200043299186756e+00  1.7634494340902933e+01 -1.8436466850783987e+01 -5.7627177148480747e+01  1.5625315926280630e+01 -1.7378396833756732e+01 -5.4834708383557988e+01  8.3555370447530866e+00 -2.1768194559180266e+01 -6.4986804855392947e+01  2.3487041151997239e+01 -2.2417106598082231e+01 -6.3835631041279093e+01  2.2946965204530340e+01 -2.0194327554730986e+01 -6.6695313918190763e+01  1.5848302444421439e+01 -2.6691171404809779e+01 -6.8973341442589344e+01  1.5098758079539534e+01 -2.1893904335793806e+01 -6.8768443819001931e+01  -5.9177060152820991e+00 1.7703538693993817e+01 -2.3500430893347747e+01  -6.5820795247904016e+00 3.1078420471242323e+00 -2.1664673439752178e+01  1.6055557348708318e+00 6.1064079007516234e+00 -3.1551678066644502e+01  -3.9987778983168649e+00 9.7797630108602256e+00 -2.3883495877986810e+01  -6.3662137927063220e+00 1.1179220955708146e+01 -1.5628153069802893e+01  -1.0049993575724676e+01 -2.8247026205382104e+00 -1.4365155967887807e+01  4.9287650961554585e-01 -1.6691897192676519e+00 -2.8855257799644580e+01  3.3500075546407820e-01 5.3779588308379846e+00 -2.2978302876185015e+01  3.8664359300018840e+00 6.3029185880504812e-01 -3.4948481340161742e+01  7.5334890371503445e+00 -3.8206228712242711e+00 -4.4951459652652844e+01  1.1760432730051145e+00 -2.0934398506909839e+00 -3.5876782388944628e+00  4.6832808559425138e-01 -4.0095779157749041e+00 -2.8099752580536292e+00  -7.6180757341261529e-01 -3.6774390539366690e+00 -2.2982708772106348e+00  7.5596912194922528e-01 -4.8733296856855670e+00 -3.3268477662156828e+00  7.3469293781831446e+00 2.0958769231044435e+01 5.4472632277040987e-02  7.1049228585166562e+00 2.1825065162388249e+01 -3.6384527811289162e+00  7.2663550450278835e+00 2.0542451045322668e+01 -3.9251204606460921e+00  1.0384879961104755e+01 2.1665616704024846e+01 -8.7900377316788214e-01  6.6832037132175870e+00 2.2509552865211639e+01 1.6148802189809416e-01  1.4977365911231303e+01 2.2539511771306334e+01 -1.3027374741833155e+00  1.1673948179597387e+01 2.0710375126790286e+01 -5.6408389900933189e+00  9.5749545635623416e+00 2.3066515421401672e+01 -6.9342154058962280e-01  5.8853631006457974e+00 2.3916024856785679e+01 -1.3135064911159094e-01  7.0559180441237039e+00 1.9620514734717279e+01 -8.5271470201899469e+00  4.5351894205620077e+01 1.2317239690905058e+01 -1.1065602349587046e+01  6.5636078308529363e+01 1.8928549952069634e+01 -1.9611489977624455e+01  4.5080334981462194e+01 1.4651798426707741e+01 -1.3078589884164700e+01  8.9541588121336986e+01 7.6185040766956851e+00 -2.5045359569025813e+01  4.7204489586215381e+01 1.4051711472784506e+01 -6.4110794638762352e+00  2.4512601991724264e+01 2.1621215062867730e+01 -1.5002245521135277e+01  4.6419111179381545e+01 1.6574974055384232e+01 -1.4354361950978623e+01  2.6394111649557466e+01 4.9212755605733548e+01 -2.4213112699579494e+01  4.0038758435895019e+01 1.5240694241059742e+01 -2.2870503608406061e+00  4.9450699631177727e+01 1.7888477513276335e+01 -1.6915030290066941e+01  7.3481238171993049e+00 -1.7469249439867129e+00 -5.3074024875190107e+00  2.0245738302632876e+00 -3.7937709946628098e+00 -2.7847534188528300e+00  1.8094380076000136e+00 -4.3414073097721078e+00 -3.7356805494332157e+00  1.8505678622221953e+00 -3.6481364429311660e+00 -3.3912843929695700e+00  6.3641959246242976e+00 -8.8882262483000440e-01 -2.1246918957167558e+00  1.4872356943412381e+00 -2.7241842586855154e+00 -2.6703569787815913e+00  1.8147638855795483e+00 -2.3526269713549928e+00 -2.5206194483987137e+00  3.4149845255767559e+00 7.5007284464144874e-01 -1.5328980979186870e+00  3.2131462071125259e+00 6.9643126174989751e+00 -4.6673998278735516e+00  7.1017797420360429e-01 1.7572826367704124e+01 -7.6174424637795415e+00  4.1008787961418474e+00 2.0915543942833651e+01 -1.3441750154998191e+01  3.7842450917771817e+00 1.6827360826577738e+01 -1.1090051004959598e+01  3.1759656168035053e+00 1.8005611584182695e+01 -1.1587896816127689e+01  -7.1166286541887158e-01 2.1820090886055208e+01 -8.7619856968055032e+00  7.6407006649388737e-02 1.9407031683684767e+01 -8.3450509051440402e+00  1.9634151464749505e+00 1.6274896889646278e+01 -7.7332510185128864e+00  8.8183886371564124e-01 1.5464439428021901e+01 -7.8917443454802383e+00  1.6367401826969852e+00 2.7050415779001753e+01 -1.1386557997880317e+01  5.7706258163699573e+00 1.7552896689784454e+01 -1.2398166778297874e+01  7.0183048226606912e+00 1.0756346008196338e+01 -6.5032416205322958e+00  1.2355546454845605e+01 6.1249252297898291e+00 -6.0480943808541330e+00  9.2310826213460970e+00 8.1692802838768301e+00 -6.4710035796163572e+00  7.5995195266667750e+00 9.4209728285302905e+00 -5.4222049156418324e+00  9.4498571688982675e+00 6.6500324475842705e+00 -6.2077662408457215e+00  7.9922368637693362e+00 1.1651450306444165e+01 -5.8113023294360628e+00  2.0745906434027315e+01 1.1654915839504879e+01 -2.7950607293692746e+00  6.5581244538467036e+00 7.0010354863954323e+00 -4.0180260454437722e+00  8.0555893477315923e+00 4.6773610697899661e+00 -5.4381033096391471e+00  9.1137971462848242e+00 2.2127356863066310e+00 -5.8328180672943821e+00  -7.1199743986215438e+00 1.0866886555510369e+01 -2.0380487916851230e+01  2.6255992023717623e+00 1.7300471290855640e+01 -2.0981213374037512e+01  4.4643023491813510e-01 1.7498048670618097e+01 -1.5144777863054031e+01  2.7806123130320435e+00 1.5583463966550008e+01 -2.3778512038606134e+01  -5.0199883560319920e+00 1.4117543325275955e+01 -1.8695318912839529e+01  -3.8570098157743882e+00 1.5733014003617791e+01 -1.7083194095210523e+01  1.0456634181652729e+00 1.8437736248376719e+01 -1.3789807288426914e+01  7.3950988731967264e+00 1.9240135011530153e+01 -1.5593565771893713e+01  4.6875020840570629e+00 2.0504702123484527e+01 -1.0971703824434801e+01  8.9970890921520363e-01 5.6945575789991167e+00 -1.9046567264148013e+00  4.7589648241752230e-01 5.9858228771842708e+00 -4.5494179962782395e+00  3.2980488490468005e+00 9.2654635697262311e+00 -3.1943507763624206e+00  7.9141413809393768e-03 3.9242824360591735e+00 -2.4526160839616256e+00  -1.2917346804690206e+01 2.7918967599941533e+00 -3.1630431583729477e+00  -7.2498247714076376e+00 5.3453654655312191e+00 -3.6487885979782799e+00  1.8756536676120725e+00 6.5476588814886956e+00 -8.3373170025954302e+00  -1.8416342638781831e+01 1.5022874673853151e+01 -1.2450242189436846e+01  -1.7820832703676672e+00 6.2693432288073483e+00 -4.9616831823220915e+00  -3.0351960939178775e+00 2.0141010524897953e+00 -1.1114096728243945e+00  -3.9607642349809544e+00 -3.5004720094183361e+00 -4.8481840501268412e+00  -3.0046669761984499e+00 -1.3039247996216474e+00 -2.7931757536471684e+00  -5.8098222319313395e+00 1.5170459881138305e+00 -1.5699385836056698e+00  -7.9097750807885048e-01 2.3030752737883513e+00 2.2363360651666520e-01  -3.2838040478316368e+00 -1.5951819182379967e+00 -2.8449521282275589e+00  -3.9143583494234990e+00 -4.9960493454732818e-01 -1.4503815409400429e+00  -1.3052130772211490e+00 -2.1124162486578141e-01 -1.9892312178391551e+00  -8.0491615940948291e-01 -8.3005951292613589e-01 -2.9538768083383671e+00  -1.3149663062713106e+00 -4.5605447485428305e+00 -2.6258739729930456e+00  4.3217721137044034e+00 6.2641176892704138e+00 -4.8355011587882064e+00  6.3431163881446082e+00 7.7466185305229072e+00 -6.1504051817094494e+00  5.0922398849174817e+00 8.8439170371662552e+00 -5.0370606583187749e+00  4.1848229298642021e+00 3.4837733277647152e+00 -6.4369733359544128e+00  -3.2771355069458896e+00 -1.8802510155616055e+00 -1.0719915744586346e+00  -2.2553896436517640e+00 -3.6279868101810342e+00 -2.2052031050531085e+00  -1.0960236301272632e+00 -1.5538440662308548e+00 -4.5142957791762166e+00  9.0309376535939651e-02 -3.9882140148649676e+00 -2.0252269397955733e+00  1.1267029167763720e-01 -9.1088838429055374e-01 -2.9740541904998889e+00  -2.0750405450187244e+00 -2.2555424191427700e+00 -2.4999738102284059e+00  3.9313902023310449e-01 -1.8624318043497667e+00 -1.5849880392844937e+00  -3.0442829099768334e-02 -3.5660577541040026e+00 -4.2927327117312120e-01  -4.8686942655838541e+00 1.8645082323037241e+00 -5.9663548369542418e+00  -1.9449142306106413e+00 4.1364730833765781e-02 -1.3819101329527483e+00  -2.5006578848251375e+00 2.0917471498522919e-01 -1.1325636127985204e+00  -2.3448704786820502e+00 3.6371711962533232e-01 -1.2713601247988084e+00  -2.1847440900760091e+00 2.3725058390515841e-01 -1.3235424925473482e+00  -2.6860735980812058e+00 2.5080962410078878e-01 -1.3317952410600842e+00  -3.0218208833042195e+00 2.3285359712077819e-01 -9.8859955492512286e-01  -3.1956734829924036e+00 4.6452892469016521e-01 -1.2591269797317848e+00  -1.6499948501743393e+00 4.2916158066705040e-01 -1.0608294632224853e+00  -2.1666546015673362e+00 3.0116741381452189e-01 -1.2077501827669141e+00  -2.3822464644133605e+00 3.4249350578521448e-01 -9.7537969493099785e-01  5.7623888797458589e+00 1.0141140220009071e+01 -9.1052324095840387e+00  6.6925914429569593e+00 7.5449933237552145e+00 -8.1016987321968035e+00  5.5335519718033970e+00 1.0187173480379579e+01 -7.6356891129142692e+00  6.1990365526315871e+00 1.1070114842386900e+01 -8.1573113062344333e+00  3.9833427364416544e+01 3.5424393353015233e+01 2.2472184987001242e+01  5.2305626298472625e+01 2.4992327801650827e+01 3.0406507460144838e+00  5.6290502006940287e+01 2.6456059174797851e+01 1.646