<?xml version="1.0"?>
<VTKFile type="UnstructuredGrid"  version="0.1"  >
<UnstructuredGrid>
<Piece  NumberOfPoints="5523" NumberOfCells="23659">
<Points>
<DataArray  type="Float64"  NumberOfComponents="3"  format="ascii">1.2402439436 11.8603079915 21.833328895  1.5098397312 12.7573709104 21.9305488683  1.7955661415 12.4543580459 22.53915460435  1.6753925066 12.11270975595 21.61296172415  2.1105410696 12.3651115204 21.3925945533  1.9449882942 13.00977267485 21.71018169745  2.2307147045 12.70675981035 22.3187874335  2.3508883394 13.0484081003 23.2449803137  2.0651619291 13.3514209648 22.63637457765  1.7794355188 13.6544338293 22.0277688416  1.3463794267 8.6503485853 32.7000417599  1.88022348045 8.12846607655 32.81878442715  1.41243290975 8.26730629255 32.32005646775  1.73507582175 8.426916569899999 32.38999165925  1.1688841734 8.1922878146 33.0588993363  1.4915270854 8.35189809195 33.1288345278  1.0237365147 8.49073830795 32.6301065684  0.7010936027 8.3311280306 32.5601713769  1.6366747441 8.0534475986 33.5576272957  2.1237722168 8.203484554499999 32.0799415586  2.8268242179 14.8660820259 22.2182505173  3.2472624156 14.3888827645 22.898561096  3.23251195875 13.6593023035 22.7164267417  3.470479898 14.5681392663 22.2030618435  2.6036067355 14.6868255241 22.9137497698  2.58885627865 13.9572450631 22.7316154155  2.36563879625 13.7779885613 23.427114668  2.3803892531 14.5075690223 23.6092490223  4.1141355781 14.2701965067 22.1878731697  3.8070115696 6.4089822503 30.3684022993  3.03093550325 5.8292815352 29.57574268925  2.85067515285 5.86349777055 30.14111211365  3.01433483575 6.331110300800001 29.91959808395  3.8236122371 5.9071534847 30.0245469046  3.6433518867 5.94136972005 30.589916329  3.4796922038 5.4737571898 30.8114303587  3.6599525542 5.43954095445 30.2460609343  3.8402129046 5.4053247191 29.6806915099  2.2216581019 6.2532383513 29.4707938686  2.9497806844 3.9222106591 25.6698718943  2.433730041 2.94983397655 25.9373439124  3.05442087865 3.3771834024 25.64383032015  1.14679086 3.2916986834 25.37260201165  -0.6561989643999999 2.6611867077 25.075332129  0.6307402166 2.31932200085 25.64007402975  1.25143105425 2.7466714267 25.3465604375  3.1590610729 2.8321561457 25.617788746  2.53837023525 2.40480671985 25.91130233825  1.9176793976 1.977457294 26.2048159305  1.4880082082 14.1308342346 25.0466347796  1.4354228831 12.9446716354 24.38249831545  1.83870566175 13.1242079629 24.754968655  1.9194482738 13.58962116745 24.14580754665  1.08472542955 13.9512979071 24.67416444005  0.6814426509 13.7717615796 24.3016941005  1.51616549515 13.41008483995 23.7733372071  2.27014572735 12.58299489575 23.85414142205  2.1894031153 12.1175816912 24.4633025304  -0.6561989643999999 3.3316325321 27.1579266457  0.6305831838 2.5884681094 27.4043058155  0.5570469367000001 3.6228292196 27.2317075637  0.6307402166 2.65454491305 26.6813712881  1.9175223648 1.91138049035 26.9277504579  1.8439861177 2.94574160055 26.7551522061  1.7702928378 3.9140259071 27.3054884817  1.8438290849 2.8796647969 27.4780867335  1.917365332 1.8453036867 27.6506849853  4.7207679857 8.726771792399999 37.4790361172  4.34767586485 7.74113438485 37.61809179945  4.285769445650001 8.119752545799999 38.32074505175  4.885547687100001 8.3546977755 38.07653662785  5.0503273885 7.9826237586 38.6740371385  4.51245556625 7.36906036795 38.2155923101  4.45054914705 7.7476785289 38.9182455624  3.8507709056 7.5127332992 39.1624539863  3.9126773248 7.134115138249999 38.459800734  3.974583744 6.7554969773 37.7571474817  2.8844555987 4.0761486168 33.1174017971  2.27591786525 3.39078424065 32.30256576  2.9270891745 3.3928820621 31.9740667965  2.8289958476 3.3774131584 32.77781938015  2.9825489256 4.0916175205 32.31364921345  2.33137761635 4.08951969905 32.64214817695  3.0806422525 4.1070864242 31.5098966298  2.42947094325 4.10498860275 31.8383955933  2.7735360965 2.6786777 32.4382369632  1.778299634 4.1028907813 32.1668945568  0.8492623043 9.288878197800001 28.3887726687  0.7263644427000001 7.9259488581 28.6369326969  0.8107978080500001 8.208523768300001 27.80865312  1.47909507705 8.67497855875 28.72329981155  0.09653166995000007 8.53984849715 28.30240555405  1.5635284424 8.95755346895 27.89502023465  -0.6561989643999999 7.7908187965 28.2160384394  2.2777945805 8.6262287401 27.4012678006  2.19336121515 8.343653829899999 28.2295473775  2.1089278498 8.0610789197 29.0578269544  4.2838649715 9.5594521201 38.2055571887  4.5023164786 9.143111956249999 37.84229665295  3.90158869105 9.190753419850001 37.57101562504999  4.1891635547 9.6356181431 37.84688912635  4.0944621379 9.711784166099999 37.488221064  4.12004019815 8.774413255999999 37.2077550893  4.4076150618 9.219277979249998 37.48362859060001  3.80688727425 9.26691944285 37.2123475627  3.5193124106 8.822054719600001 36.9364740614  6.5959676042 6.7997740612 37.5843139408  7.3029540932 5.52377588605 37.48247973035  7.25609491735 6.31691487325 37.9373048848  7.0346540487 6.318585360549999 37.23195835595  6.64282678005 6.006635074 37.12948878635  7.4733404932 5.8373966599 36.8796027711  7.69478136185 5.835726172599999 37.58494929995  7.08151322455 5.52544637335 36.7771332015  6.6896859559 5.2134960868 36.6746636319  7.9162222305 5.8340556853 38.2902958288  2.1594904187 8.2023135765 36.4706798066  2.9484864027 7.617973574400001 36.90200560705  2.43273263925 7.87462477925 37.08526544755  2.24729877685 7.325923924750001 36.611663902  2.67524418215 7.94566237165 36.2874199661  3.1909979456 7.6890111668 36.1041601256  2.7630525403 7.069272719900001 36.4284040615  2.335107135 6.449534273 36.7526479974  2.5205409974 6.9982351275 37.22624954295  2.7059748598 7.546935982 37.6998510885  -0.6561989643999999 5.5260527185 37.3348556951  0.8394540853 5.9162106209 36.3664833964  0.8394540853 5.98779349575 37.04375184625  0.7758011804000001 5.2141659481 36.7071957328  -0.6561989643999999 5.45446984365 36.65758724525  -0.6561989643999999 5.3828869688 35.9803187954  0.7758011804000001 5.14258307325 36.02992728295  2.2078013252 4.9022791777 36.0795357705  2.2714542301 5.67590672535 36.41609188395  2.6412145863 12.2883846414 25.9273780244  2.10537428335 11.18226576595 25.1868160683  2.41890520905 11.5395831531 26.29719722945  2.8746541466 11.8161165127 26.1610467084  2.5611232209 11.45879912555 25.05066554725  2.18546564875 12.0118512818 26.06352854545  1.7297167112 11.7353179222 26.1996790665  3.1080937069 11.343848384 26.3947153924  2.7945627812 10.98653099685 25.28433423125  2.4810318555 10.6292136097 24.1739530701  2.8551504667 3.5370450282 40.6433994556  3.4487422402 3.2343711687 38.98034046914999  3.0909101878 2.98488088165 40.6433994556  3.48814156005 3.46598066255 40.6433994556  4.1211326534 3.3949162969 40.6433994556  3.6845019613 2.68220702215 38.98034046914999  4.08173333355 3.16330680305 38.98034046914999  3.72390128115 2.913816516 40.6433994556  3.3266699089 2.4327167351 40.6433994556  4.0423340137 2.9316973092 37.3172814827  2.48505076 8.676835887399999 30.7731509577  1.94072693955 7.81650630215 31.2254582752  2.12136621115 8.053181968600001 30.57206297475  2.7857134293 7.8172187006 31.0807870502  2.3044114884 8.440160220949998 31.42654625815  2.6050741577 7.58054303415 31.73418235065  3.0863760986 6.9576015138 31.3884231427  2.42202888045 7.1935647818 30.87969906725  1.7576816623 7.4295280498 30.3709749918  3.0225829405 4.461320193 34.5350274079  2.1022390815 3.2863091759 34.9976570547  2.3727709943 3.94335733225 35.32240841475  1.18319198805 3.92749365685 34.86270765245  2.7520510277 3.80427203665 34.21027604785  -0.6561989643999999 3.3936671207 35.190387897  0.53338004185 3.4095307961 35.6500886593  0.9126600752500001 3.2704455005 34.5379562924  2.4815191149 3.1472238803 33.8855246878  1.7229590481 3.4253944715 36.1097894216  2.9292743273 3.65021102 38.8212022373  2.55518883115 2.9186566751 38.95817790895  2.2552271956 2.300268322 37.2729563623  3.14878060465 2.6159828156 37.2951189225  2.62931269175 3.0318226669 37.13598069065  3.0033981879 3.7633770118 36.999005019  3.5228661008 3.3475371605 37.15814325085  3.7119490679 15.5702276458 23.9771527695  3.53973069055 14.50234814955 22.9794397176  3.98229311555 14.8544209595 23.8588908437  4.2137956913 15.3472741161 23.56257405305  4.7156423147 15.1243205864 23.1479953366  4.484139738950001 14.6314674298 23.44431212725  4.2526371632 14.1386142732 23.7406289179  1.9793724186 10.62594777735 26.0185396453  1.20949620515 11.34914085225 25.9038798986  1.49833117855 11.25483460965 26.446670415  1.2669456459 10.7743512971 26.6936617635  1.45915191255 10.2397707074 25.7227404774  1.74798688595 10.1454644648 26.2655309938  0.9781106724999999 10.8686575397 26.1508712471  0.6892756991 10.9629637823 25.6080807307  2.229028126 9.516577632500001 25.8374002241  2.9820016716 13.716885393 20.4780576418  2.90441294475 14.29148370945 21.34815407955  2.91144508665 13.37408210995 20.8465806543  3.37479138195 13.4980974164 20.85567731605  3.7675810923 13.2793094398 21.2332969903  3.2972026551 14.07269573285 21.7257737538  3.304234797 13.15529413335 21.22420032855  2.8408885017 13.0312788269 21.2151036668  2.8338563598 13.9486804264 21.71667709205  0.8162651516 2.721606878 39.1871914574  0.5079690162 1.86653145935 38.5220586591  0.1602221554000001 1.6507590507 39.65622823309999  1.2442010742 2.38699163295 38.7811258825  0.08003309360000005 2.2011467044 38.92812423399999  1.324390136 1.83660397925 39.5092298816  0.8964542134 2.1712192243 39.9152954565  0.9766432752 1.6208315706 40.6433994556  -0.6561989643999999 1.6806865308 38.6690570106  1.6721369968 2.0523763879 38.3750603076  7.3108700956 6.481241633 40.6433994556  7.2042889061 5.80217434425 39.46684764219999  7.61354616305 6.15764865915 39.46684764219999  7.4143279598 5.8007963161 40.6433994556  6.90161283865 6.125767318099999 40.6433994556  6.4923555817 5.7702930032 40.6433994556  7.00507070285 5.4453220012 40.6433994556  7.517785824 5.1203509992 40.6433994556  7.71700402725 5.47720334225 39.46684764219999  4.4494661857 7.8029479198 36.6431654227  4.72121445815 7.
[...]
<PointData  Vectors="u"> 
<DataArray  type="Float64"  Name="u"  NumberOfComponents="3" format="ascii">5.6191877304111117e+01 1.8957936617064857e+02 -1.4522973716232974e+02  6.4447510948033226e+01 1.5234320474640236e+02 -1.2519604834916518e+02  8.3929826228059611e+01 1.6572041516187613e+02 -1.0764488256714790e+02  5.4956663679630964e+01 1.7869118866035348e+02 -1.3817228184085690e+02  5.2041875901032043e+01 1.6974116997208833e+02 -1.1646661153293987e+02  6.5199350976361671e+01 1.3983755981206582e+02 -1.1627522312110808e+02  8.7261083902814562e+01 1.5474590416095043e+02 -1.0242349292573508e+02  8.6157864006593925e+01 1.5012146976629148e+02 -9.9138704445219801e+01  7.9228129879276764e+01 1.3774813046468449e+02 -9.9095206369945316e+01  6.7769372454841701e+01 1.2658127422419663e+02 -1.0697193977323739e+02  1.3340289480264419e+01 3.7016331053917146e+00 -3.6778881270838440e+01  2.2286333333504764e+01 -8.3332608249625935e+00 -3.6139674215412029e+01  3.8027475940040674e+01 8.7052180367640020e+00 -5.2695842448749957e+01  2.7715398704099588e+01 -1.8807894564308608e+01 -5.6051737825004295e+01  4.1148537309879949e+01 9.2056252182986444e+00 -1.9274392970519685e+01  2.5411668032417801e+01 -6.8291512662470879e+00 -2.1957855993250881e+01  3.8081564241841072e+01 2.3693316543583091e+01 -3.8690623428826235e+01  5.1562460755529514e+01 3.5028890689681170e+01 -3.6390926475317563e+01  2.7454184504147090e+01 -1.7951729171851330e+01 1.2265261962689088e+01  2.8421062177122870e+01 1.0437927627831193e+01 -7.8781607966137585e+01  7.4351200110255547e+01 8.1995988401221624e+01 -8.0464214185958738e+01  8.9862437879194573e+01 9.6475917973307091e+01 -8.8176217989100124e+01  1.0407947171168227e+02 1.1039459142027974e+02 -9.9875686982254322e+01  9.4125891533570922e+01 7.7257988827394016e+01 -8.5301960367828613e+01  6.8570206559767755e+01 1.0109146296791073e+02 -7.9542464127121960e+01  8.3787630595030620e+01 1.1279887177345141e+02 -9.2442216765959884e+01  7.2706383096514600e+01 1.3466774164498955e+02 -8.8481796907431757e+01  5.9301426629699058e+01 1.2177610222940260e+02 -7.3703395767694104e+01  1.2342386949053147e+02 6.8376309436561314e+01 -8.9019359367525396e+01  2.9619725087144598e+01 4.5897029379835502e+01 -7.2067988814374544e+01  3.8117515615124120e+01 4.1111071327115717e+01 -8.3598379378666493e+01  4.8574183604475486e+01 3.6787870479967495e+01 -8.2208456790164178e+01  4.3748371220888416e+01 4.9253910590701743e+01 -8.5743946328425181e+01  2.6420141993715848e+01 4.1014248345805285e+01 -6.9963940813335768e+01  4.0770308713006308e+01 4.2671134101859948e+01 -6.9998425674953452e+01  3.2558688231372749e+01 3.4418541953720279e+01 -7.7140824786841790e+01  3.5285439750868811e+01 3.2260710789347833e+01 -7.5339910480896137e+01  1.4297032496449752e+01 3.1618076630684076e+01 -6.3900692123091524e+01  6.8436387081036401e+01 4.5232705385476329e+01 -9.4857745651476904e+01  3.7891488856091954e+01 -1.4659628222013663e+02 -2.1486738237410691e+02  1.1234776091322058e+02 -1.3886259455433157e+02 -2.2663871411247553e+02  7.4936054506375370e+01 -2.0180618115483523e+02 -2.5050956244870088e+02  1.4653637011601654e+02 -9.2772444089033698e+01 -1.8817800010181872e+02  2.0272894472378118e+02 -8.9455674379124488e+01 -1.8963101223156747e+02  1.7024869387349622e+02 -9.5302836437588354e+01 -1.9203152896419618e+02  1.5382032942289501e+02 -1.0338732781829701e+02 -2.0482122050543384e+02  1.7139624219479802e+02 -1.9877359797177539e+02 -2.9251314791482741e+02  1.4446265187800066e+02 -1.3429384970484944e+02 -2.4962292608459913e+02  1.4221167169293923e+02 -1.0907130286491802e+02 -2.2476204360925533e+02  2.5728285669819073e+01 1.6557276919839435e+02 -4.9790764229373984e+01  6.0898269567626116e+01 1.8660909809087022e+02 -7.8892500533449976e+01  4.9335631613018144e+01 1.8850344254797119e+02 -7.7995343550738312e+01  5.8393901946056779e+01 1.5901778970011429e+02 -7.9091039382932095e+01  2.9637489246397969e+01 1.7388115739432513e+02 -4.7733410935742413e+01  4.4654752645867603e+01 1.8681808119652561e+02 -4.8258652050497737e+01  6.4148051900898722e+01 1.6325801850341742e+02 -7.9231852037113640e+01  8.4375917374178130e+01 1.6805972776963662e+02 -1.0472098686562616e+02  8.0268214875176255e+01 1.9027421165202620e+02 -1.1626897789085069e+02  1.9983890864372768e+02 -5.9657083463153718e+01 -1.5211846226191335e+02  1.4195510761851833e+02 -7.4756752043639381e+01 -1.6273382673073090e+02  1.4591880933639808e+02 -5.3073637510044662e+01 -1.5375457434272894e+02  1.5029197637129852e+02 -8.3797298507781122e+01 -1.7380781877601211e+02  1.2142816438032651e+02 -9.4829460580062843e+01 -2.0695509626161640e+02  1.0605392131671557e+02 -9.5144662138603891e+01 -1.9208287000850768e+02  8.0667543820749074e+01 -5.1855213113269734e+01 -1.5728231522336600e+02  9.2877370778457106e+01 -7.9850980986157751e+01 -1.7528329289115248e+02  1.0247764191523054e+02 -8.1916127764212405e+01 -2.0162416203002618e+02  5.5197277500343930e+01 -7.1529006504319156e+01 1.5704896117341548e+01  1.2306591004510521e+02 -7.0481409151273283e+01 5.4577056752517372e+01  1.1714540013755457e+02 -1.0186608634547768e+02 2.7336140096568442e+01  6.6707799598713379e+01 -1.3849927727744250e+02 3.8570423796323162e+01  1.9214002301697960e+02 -1.5999606614663384e+02 1.1794737127043865e+02  1.7593469056413804e+02 -8.7564487683127254e+01 7.3383941097012340e+01  2.0486607508144871e+02 -1.3773143337582209e+02 1.0706001669063085e+02  1.8301505182047489e+02 -9.2801815403308623e+01 8.6498330926626480e+01  1.7309071073682193e+02 -5.5537222079190585e+01 6.7997511886007871e+01  1.7760438675920852e+02 -3.8091729011523235e+01 7.3399219352961268e+01  3.5110557987928908e+00 9.3070346680174012e+00 3.9150987489743819e+01  3.5324190951766504e+01 -5.5830167275931339e+00 -1.4596474820666224e+01  6.5679108612213177e+00 -4.4215908908270487e+00 -3.5651694931416316e+01  -6.6313119793925477e+00 6.3613718015466727e+00 -4.1047289371906555e+00  1.5884052510457876e+00 6.2931429612139347e+00 -1.9522740585705780e+01  3.4488941756049229e+01 1.7456073276535315e+00 5.9118567453130240e+00  8.3135290395217485e+00 9.4887569764460906e+00 -4.8188197490107953e+01  3.6088307951691853e+01 2.4552362470217908e+00 -3.1562697120716209e+01  4.9655343709432458e+00 -7.6428504026478441e+00 -2.0280388141546840e+01  6.7576905290088249e+01 -1.8435878994684509e+00 -1.3350549314191486e+01  1.1415479887892138e+02 1.2758355888774213e+02 -1.8632687729480921e+02  1.2855140418372861e+02 8.6887951425531341e+01 -1.2927792267969261e+02  1.1223496018574170e+02 1.1718851010509684e+02 -1.3892112423094972e+02  1.0244587945290849e+02 9.9687811910600303e+01 -1.4039444439736914e+02  1.2962071024123554e+02 1.2250161858439628e+02 -2.0230888235641982e+02  8.4082383397890396e+01 1.2674917827841678e+02 -1.4991360588685842e+02  1.7948351776796744e+02 1.3638310073190826e+02 -1.4785053468239570e+02  7.5690890632424768e+01 1.1809587767158902e+02 -1.5285515693394967e+02  7.8927120113903882e+01 1.0121424382350422e+02 -1.3499847001891260e+02  8.3867292656459696e+01 8.7396304775688208e+01 -1.2156418546471747e+02  1.9642542130987373e+01 -3.3909511528950716e+01 4.9283611201892236e-01  3.0810331294822575e+01 -5.5079621948453465e+01 1.0835996940691176e+01  4.5062707923213964e+01 -1.3556361089989428e+01 9.9334625120354243e+00  1.6706045529060489e+01 -2.4815389635520390e+01 4.5300053982077291e+00  1.0652908205926989e+01 -1.0336667747825231e+01 -1.5487705267492629e+00  7.2740667312789199e+01 -2.9730063419037887e+01 2.1358518971823340e+01  3.3363863231318895e+01 -4.3607536208141639e+01 6.5475306998371003e+00  3.2457544319398473e+01 8.0790790234242191e+00 1.1331967360170358e+01  7.3763729265249239e+01 1.8936183722837683e+01 2.4271380346235606e+01  4.6343898536677955e+02 -3.0604776597965810e+01 4.6029691036348304e+01  3.9797515024567110e+02 9.4064297899643478e+01 1.8275180004524486e+01  3.8327173985411542e+02 3.9046829177528252e+01 -2.8917125897320002e+01  5.7355354584327097e+02 9.4149826567254010e+01 5.5239145824242527e+01  4.0099925592460937e+02 1.2169742949474351e+00 8.4027221760733440e+01  6.0114577279664775e+02 2.2278999152229346e+02 -2.1069054941385923e+02  3.8839338986878010e+02 8.9825488107001547e+01 -7.8842832150489954e+01  4.2782449691266567e+02 1.2622125045268402e+02 1.6008739689530589e+02  3.4146150954406647e+02 8.4115208781413159e+01 1.0087446781463055e+02  3.2792526475862786e+02 4.0855005794052509e+01 -4.1511031497562463e+01  1.3761627071070703e+02 5.6600547632772148e+01 7.9087436741493278e+01  1.3877337826621402e+02 1.6875515197775961e+01 6.4568006879336650e+01  1.3522540229105439e+02 3.2026453853538328e+01 5.4920993386223820e+01  1.4190812415167090e+02 2.1430684798543655e+01 8.2509330632830000e+01  1.4990865432386153e+02 5.7551467970232132e+01 7.7087888386946105e+01  1.4598444012613311e+02 3.9378229446543450e+01 8.3314911407806491e+01  1.5012051143526659e+02 1.7391853329841432e+01 8.8238100810037508e+01  1.5105000974346791e+02 3.7870394568449428e+00 8.7072720989174115e+01  1.4924525095434197e+02 4.7630434750310435e+00 7.1244150691390516e+01  1.3986019820322446e+02 1.6394688913099789e+00 5.3041791310067069e+01  2.0020452705647244e+02 -1.9144118988291341e+00 6.9639409362232485e+01  1.5335053459254812e+02 1.1806761557186192e+01 7.3264165752540308e+01  1.6183207613997141e+02 4.3951715517647942e+00 7.1076623972303480e+01  1.6265231806058222e+02 -2.1630616338038675e+00 7.9487518266637309e+01  1.9923457384979747e+02 1.0357575944934640e+01 6.9121702032453570e+01  1.9919870867570654e+02 1.6585160357335081e+01 6.8204544888939168e+01  1.5712521871205135e+02 2.3045569142788378e+00 7.8659529865071832e+01  1.4867455243650457e+02 -6.1549534750820412e+00 1.0361600088171406e+02  1.5203868388498481e+02 -2.0425525234328417e+00 9.5660251498845824e+01  3.3992434960297317e+01 2.4488676120553941e+02 -1.3723425630089804e+02  7.9252116741918286e+01 2.0949210082201247e+02 -1.5521328678353044e+02  5.3850838765900434e+01 2.6862218031743066e+02 -2.6004762574960483e+02  2.0612025114270512e+01 2.7012808394912292e+02 -1.8091374363802962e+02  8.8317323980668078e+01 1.9551373477711775e+02 -1.5994534448089257e+02  4.4791190769027175e+01 2.8239101071301479e+02 -1.3860308555658062e+02  1.3611924084880995e+01 2.8044451299464697e+02 -2.0021680517473888e+02  2.1205925463691560e+01 2.1562268720809809e+02 -2.9610311603987464e+02  9.3015250721473961e+01 1.9189061642722768e+02 -1.8984841019725954e+02  1.2553178755767908e+02 1.8574141154644965e+02 -1.3968419670395383e+02  1.1998739048341088e+02 6.5513975832230340e+00 5.9800011645997522e+00  1.6088996734723969e+02 4.3388311812794207e+00 5.1842321473009662e+01  1.3070811676967020e+02 9.9419133563965918e+00 9.7651706601402599e-01  1.5556001272920810e+02 6.7260201819605259e+00 1.6815153266197223e+00  1.7862876404458109e+02 1.0808795584125559e+01 2.4092587079922093e-01  1.6475662344401917e+02 9.7244908923513957e+00 4.7402749856005499e+01  1.8168465719957004e+02 9.4231604361989145e+00 4.8411558285611825e+01  1.6311104119873875e+02 1.4404034136366308e+01 5.2448382525095316e-01  1.3921725030565784e+02 1.9510553847926364e+01 2.8274678891230996e-02  1.8300580936446590e+02 5.6105611443625856e+00 8.0318550704683858e+01  8.6917157166180857e+01 7.9708724389796785e+01 -1.4838606265680764e+02  6.1110023615353526e+01 3.6348875690493344e+01 -9.4091667203092797e+01  7.6901693526748986e+01 6.1189584951414560e+01 -1.1611399929502204e+02  5.6276346543829710e+01 4.1911830163327629e+01 -1.2781921036286465e+02  4.0218783969954764e+01 3.0333854705628422e+01 -1.2246478102010271e+02  2.6825773134756158e+01 1.6336902377103321e+01 -9.2325759360392198e+01  3.4010824392785700e+01 2.8136413443794741e+01 -9.6691074258337125e+01  6.0874713672648667e+01 4.3510337727299714e+01 -9.1599565484339990e+01  8.5402544078494486e+01 5.6216697904822027e+01 -9.5252434604361412e+01  7.5804190946662743e+01 5.1216995514770449e+00 1.6120549365834964e+02  1.0523821326473508e+02 -1.1479978146281340e+01 1.2362325558235450e+02  1.2737556487008702e+02 -7.2464000944332332e+00 1.1857853447413265e+02  1.3058178049364770e+02 -1.3968403291692979e+01 7.6012168662229016e+01  3.7629157882164719e+01 9.4126042817608795e+00 1.3426105747331093e+02  2.0028872557926641e+02 -3.4937329821906367e+01 6.6386953819631046e+01  1.5620299341867315e+02 -2.6860406451871143e+01 8.2136223727370904e+01  1.2622461096441968e+02 -2.6061666134644071e+01 6.6833664167518009e+01  2.7750002411487753e+01 3.2870730272635775e+00 9.4449296921106949e+01  1.4610961340288929e+02 -1.8161371565562415e+01 9.9914117538856047e+01  1.5336217962813114e+02 -3.3981679950393886e+00 6.3504632340258183e+01  1.3606626625773640e+02 -3.9529549941433401e-01 6.1166400428732004e+01  1.4081472997428560e+02 -1.6867634749202480e+01 8.5427797413581416e+01  1.5921355644677689e+02 -4.9283726074728706e+00 8.2661153735663092e+01  1.5507038532521969e+02 -1.0286455941933024e+01 8.8387365360181505e+01  1.6788530605002606e+02 -7.9493910518223565e+00 9.2672110219725539e+01  1.7612831786096012e+02 -2.0310085193962002e+00 8.6536961280535152e+01  6.0763737545300273e+01 9.1446588872049134e+01 -8.0011957895395497e+01  9.2870243286486058e+01 8.9198206280499221e+01 -9.2288288158420599e+01  7.9686099372758960e+01 9.7970660320923429e+01 -1.1526898626765312e+02  9.1491258011711423e+01 7.3057702353689450e+01 -9.6924124298663244e+01  1.4506465480612090e+02 5.8284871567223455e+01 -8.6431492976782039e+01  1.2458058875684600e+02 7.9248801016300163e+01 -1.2240372687254161e+02  1.1014150383714077e+02 9.8978857657416597e+01 -1.3651947827718831e+02  6.6650133361833923e+01 1.8700448843970165e+02 -1.9022948110986820e+02  2.9029628861089062e+01 2.7073576860409639e+02 -1.7337101055705671e+02  3.7316528186319935e+01 2.3023880093188626e+02 -2.0247241867984636e+02  4.4125083830321138e+01 2.1508383030788673e+02 -1.8785327054443755e+02  8.5872969811038161e+01 2.0303135553516290e+02 -1.6262996841106406e+02  7.1884980146005546e+01 1.8377744472901495e+02 -1.8015661710338929e+02  5.5488484568207035e+01 2.2610583703322484e+02 -1.8158329849629297e+02  4.7664092745117379e+01 2.7506638652193823e+02 -1.4335328060200942e+02  9.4121123734046847e+01 1.6691467176836036e+02 -1.7314093290887138e+02  9.1469574702925712e+01 8.4588793123359721e+01 -1.1413146942408052e+02  8.1654279352910436e+01 8.0651927410193395e+01 -9.3988133077639120e+01  9.0556489877266657e+01 1.2705173515698131e+02 -1.0900419162610112e+02  1.2486369821068465e+02 9.8632530350462929e+01 -1.1989304948295627e+02  1.5197192604878575e+02 1.0363391572757166e+02 -1.1275402833331472e+02  9.8430245985434965e+01 8.3583759357839398e+01 -9.3898187948066109e+01  1.1960958052577871e+02 1.4316479183035324e+02 -9.7615646519188189e+01  9.2681809334848779e+01 1.4799691992516290e+02 -1.0114539904035529e+02  8.8548254995037254e+01 9.8276889106303457e+01 -9.5264985619530961e+01  1.0588610112299423e+02 -4.8348315408293017e+00 1.1487298763877038e+02  1.2454140985127080e+02 -2.7751401944774035e+01 9.8797058708381641e+01  8.7666274985813288e+01 -4.3977827322119385e+00 1.0540896011478759e+02  1.1795000331236429e+02 -1.5538572262121875e+01 8.7943897351948664e+01  1.1479876995519672e+02 -2.2017782890165897e+01 1.3200296760795990e+02  9.1528409961474352e+01 -7.7752776994713235e+00 6.5925291591667644e+01  7.1437384280142425e+01 -3.2568978149280720e-01 6.9076113589393543e+01  4.3223139591203136e+01 -6.4247616784429020e+00 3.4068042391598802e+01  1.6479959652124896e+02 -2.0778328651641800e+01 1.4577411482944464e+02  1.2263905511477913e+02 -1.9001065736400566e+01 7.7899915769985526e+01  3.0725360035491371e+02 -4.3622836863028041e+01 -2.6894887275924180e+01  3.0129190656790439e+02 1.5173620975819727e+01 9.9834767560016013e-01  2.9946592356568817e+02 2.2076964515255913e+01 -1.0251461351826661e+01  2.8877112233999810e+02 1.0033424900107166e+01 8.1365730856582663e-01  2.7697034356783445e+02 -1.3149888883194411e+01 -5.5897931798067972e+00  2.6618083800041666e+02 -7.7505305181889801e+00 -2.0569503439002625e+00  2.7608942725360703e+02 8.9155688048746307e-01 -3.4576844625348273e+00  2.7702772936577844e+02 9.1637170642961685e+00 -2.4395046254748354e+00  2.9344086573665703e+02 1.4167476774939438e+01 -4.8762832988317317e+00  1.1674160573249618e+02 -3.3664912629625647e+01 5.5217316856237339e+01  1.8720021965689719e+02 -8.0990941644073985e+01 8.2576311337690555e+01  1.5304903917364555e+02 -4.4544636387817803e+01 7.0978621142678250e+01  1.3775056442095919e+02 -6.1377326425686562e+01 8.0504487966351064e+01  1.3477500188453345e+02 -1.0282628613611229e+02 8.4388088962944892e+01  2.4746448145901408e+02 -1.4661937848781781e+02 1.0268233059952865e+02  2.0933975268291431e+02 -1.1494319944303925e+02 1.1129759180548957e+02  1.9181645455196261e+02 -7.2573749218717282e+01 9.9751613129103006e+01  1.8289342876414548e+02 -4.9796412756438464e+01 8.3724487609785740e+01  3.2827747529208438e+02 3.1156846551588210e+01 3.1380496470449412e+01  3.1684980603754451e+02 -1.7522904976712979e+01 6.1946513080769023e+01  2.9738247240471753e+02 2.1849008486611190e+01 8.7103597017500803e+01  2.6044252145288982e+02 3.8903152049435126e+00 6.7974329324676660e+01  1.1674938039358953e+01 6.4599783594627112e+01 -7.6368083975344362e+01  1.2846580707258116e+01 4.8089394494944131e+01 -6.5621315929020014e+01  1.8721836469154358e+01 5.3057687651782004e+01 -7.7254824473217369e+01  3.7729587118968972e+01 5.7406575219026436e+01 -8.7955971464885280e+01  1.4139860037633682e+02 4.8376633789538211e+01 1.0516218229032387e+02  1.5730206750450080e+02 4.4449044406207427e+01 1.0906549931799239e+02  1.3125741236412600e+02 1.3803321254859707e+01 1.4514615905484061e+02  1.4273490652643622e+02 1.9958771611770306e+01 9.8168466494763862e+01  1.2433601949433387e+02 1.7798163349354532e+01 -2.4776277448054916e+01  1.2435107131110721e+02 1.9148142889424172e+01 -4.7385020389105804e+01  1.4071119478846296e+02 1.5748219917100975e+01 -1.4965064885242642e+01  1.4504966414468646e+02 3.5815120402028924e+01 -4.0401499695848564e+01  1.6587747700574812e+02 3.5248220156578022e+01 -2.8444234093599917e+01  1.6104837514403769e+02 9.0264943986847737e+00 -1.1038669464116634e+01  6.1048106871545819e+01 -3.8323081090246149e+01 3.1558008268875399e+00  1.3571939370237700e+02 -6.4745124706649989e+01 4.2321688214404098e+01  9.8773057472437301e+01 -7.8252848602180421e+01 -3.1885697520153893e+00  5.5257449062280642e+01 -6.0770512523071211e+01 1.4075412058445476e+01  -3.1393327235176361e+01 2.8744214080107309e+01 -8.7891662860946397e+01  2.4562666294271725e+01 -1.1304215193623504e+01 -1.2230258641730254e+02  1.5064122766111144e+01 1.9640872560258895e+01 -1.1350856476780754e+02  2.4808399851717738e+01 1.4193845853352498e+01 -1.0474554533540383e+02  -3.9410029935933466e+01 -8.4132093101627248e-01 -1.0739263744421449e+02  -2.9092555603765760e+01 -3.7945543118128619e+01 -1.5419326175196210e+02  2.2470793966285594e+01 -1.2129062722633542e+01 -1.3509060106462113e+02  6.7795363144520849e+01 3.2401895061023289e+00 -1.0705313290029808e+02  6.6772263200494834e+01 6.3819891813244798e+00 -1.1817742453394970e+02  6.7514528844121401e+01 1.0110762191110179e+01 -1.2869458001070905e+02  2.0087051043289890e+02 3.7284764240519984e+01 8.9313920431495475e+01  1.7733628719414958e+02 1.4119017345168130e+01 8.2512509110432958e+01  1.8106582897562203e+02 2.7803868888578194e+01 8.5469573866371690e+01  1.9164678815544761e+02 1.7775348085768002e+01 8.4001631758349475e+01  1.6485585054784383e+02 3.8305906451693879e+01 9.6028060131121066e+01  2.0096999386250206e+02 3.0114662160826185e+01 8.1505284397917393e+01  1.5839531614172338e+02 2.1286293029525684e+01 8.8143953026473667e+01  2.1204211539547450e+02 2.5970924123246732e+01 6.8675592859654969e+01  1.8746723671531461e+02 1.8695034627593788e+01 7.0561422237380100e+01  1.9345504220193169e+02 -1.7549003046354252e+00 1.1058106463000370e+02  1.6858374591594307e+02 -2.7848821237107892e+00 9.2131205401653304e+01  1.8466217850653811e+02 3.6782761340775978e+00 9.0848733628357962e+01  1.6770046241190295e+02 -4.0605736777603424e-01 8.0902489715115735e+01  1.7806423943986957e+02 -1.3764252870833603e+01 1.1458641927802631e+02  1.8191582333028867e+02 1.1225860485