<?xml version="1.0"?>
<VTKFile type="UnstructuredGrid"  version="0.1"  >
<UnstructuredGrid>
<Piece  NumberOfPoints="5486" NumberOfCells="24578">
<Points>
<DataArray  type="Float64"  NumberOfComponents="3"  format="ascii">8.065594399 9.838767364300001 16.4463600325  8.582173021799999 10.23196337285 15.58537305975  8.405181184 9.4376450222 15.66986690635  8.7028639182 10.20458116165 16.0531003478  7.9449035026 9.8661495755 15.97863274445  7.8242126062 9.893531786700001 15.5109054564  9.0424507032 9.803458819549999 15.27660722165  8.284490287600001 9.465027233400001 15.2021396183  9.3401334374 10.570394959 15.6598406631  8.744767969 9.036522680099999 14.8933737802  9.7212274881 7.8257012787 12.2043866698  10.2302070508 7.95674900215 13.2206236385  9.62149340245 7.6812575069 13.52717460335  9.87088368025 7.0722207135 12.8589703137  10.0205398724 6.3187401483 13.5135539576  10.37986324295 7.20326843695 13.8752072824  9.771149594600001 6.927776941699999 14.18175824725  9.521759316800001 7.5368137351 14.8499625369  10.13047296515 7.812305230350001 14.54341157205  10.7391866135 8.087796725600001 14.2368606072  7.8103949161 8.9496063565 15.933866311  7.985814556699999 8.714123939549999 14.9881506239  8.666077116450001 8.2432100458 15.39191442395  8.27758144255 8.993064518299999 15.4136200456  7.518628030249999 8.670665777749999 15.5083968893  7.2268611444 8.391725199 15.0829274676  8.374310230600001 7.96426946705 14.96644500225  9.133263642900001 8.2866682076 14.87166815855  8.636184336399999 6.8178976568 13.6479326561  8.776329066999999 6.14327464545 13.44280422605  7.7541083755 6.12281529375 13.1767314089  8.538757044299999 6.4912970722 12.91213918965  8.4413297522 6.1646964876 12.1763457232  7.8942531061 5.448192282400001 12.97160297885  8.6789017749 5.81667406085 12.7070107596  7.6566810834 5.79621470915 12.44093794245  6.8720324146 5.4277329307 12.7055301617  8.9164737976 5.4686516341 13.237675796  12.1496432524 7.0837194784 12.9109142999  11.44441493295 7.585758102 13.57388745355  11.77512269455 6.8477306234 13.56212053395  12.0131813428 7.985917525750001 13.7993818162  11.8767194332 8.8881155731 14.6878493325  11.30795302335 8.487956149350001 14.46235496985  11.63866078495 7.74992867075 14.45058805025  11.4006021367 6.6117417684 14.213326768  11.0698943751 7.349769247 14.2250936876  11.0319319488 7.4619874433 17.3991297238  10.77603591565 6.8922747344 16.8980352598  11.0353169702 7.4466206487 16.45382611785  11.302073196 7.0227902298 17.2557334667  11.5722144432 6.5835930163 17.1123372096  11.04617716285 6.4530775209 16.7546390027  11.3054582174 7.0074234352 16.31042986075  11.0387019916 7.4312538541 15.5085225119  10.77942093705 6.876907939800001 15.95273165385  10.5201398825 6.3225620255 16.3969407958  8.418130227100001 11.7967428903 11.731586233  8.450957396 10.94308724605 12.82500165805  8.8159970239 11.58197244355 12.6239288665  8.105583848849999 11.48564356245 12.715589377  8.763503774250001 11.2541865739 11.84099851405  9.1088773214 10.7116302575 11.9504107951  9.16137057105 11.03941612715 12.73334114755  7.7930374706 11.1745442346 13.699592521  8.50345064565 11.2708731157 13.6079320105  9.2138638207 11.3672019968 13.5162715  10.2588390067 9.2160516446 15.3434932592  10.4990128101 8.6519241851 14.7901769332  11.06777921995 9.052083608850001 15.01567129585  10.64877049915 8.32365274935 15.42600788555  10.88894430255 7.75952528985 14.87269155955  11.4577107124 8.159684713600001 15.0981859222  10.0968139646 3.2289063692 14.3707921193  10.61603971835 3.2597040565 13.36067080225  9.8916772401 3.92804210505 13.20369482685  9.891178748550001 3.12054224375 13.6575616281  10.82217342595 4.17556804325 13.6200344922  10.8216749344 3.36806818195 14.07390129345  10.09731245615 4.0364062305 13.91692531805  10.0978109477 4.8439060918 13.4630585168  11.5465359042 3.5072299947 13.7770104676  9.685543532500001 3.0121781183 12.9443311369  13.2733971254 1.4585778754 13.2837781663  13.28309187515 0.6680473849999999 13.4306510689  13.3086754591 1.04855184155 13.1086704376  12.8739823579 0.3941643189 13.27867191145  13.24781354145 1.07807341885 13.6057587976  12.4745675904 -0.6702492376 13.2735656566  12.9092606916 -0.01586171494999999 13.10356418275  12.84839877395 0.01365986235 13.60065254275  13.2222299575 0.6975689623 13.9277394289  13.3439537928 0.6385258077 12.9335627089  8.6823537164 8.0980200652 14.25366265695  9.0789718266 7.17735569595 14.2489475965  9.308261637649998 8.05974832525 13.79347025345  8.239566226199999 7.738562026049999 13.65264771655  7.842948116 8.659226395299999 13.657362777  8.91164352745 8.9804126945 13.7981853139  9.980338938899999 9.301598993700001 13.9390078508  9.751049127849999 8.419206364400001 14.39448519385  12.7270286111 8.5532875087 13.1647562396  12.907193341 8.984503206599999 14.0318974689  12.30187402215 8.7207015409 13.92630278605  13.1394979964 8.391478904300001 14.2356369045  10.7011310094 7.3105651413 12.6552212772  11.05086657305 6.96115345485 13.4342740226  10.90682256965 6.7815075228 12.5501850399  11.4253871309 7.197142309849999 12.78306778855  11.2565581333 6.432095836349999 13.3292377853  11.63107869115 6.66808469135 12.67803155125  11.1125141299 6.2524499043 12.4451488026  10.24886403 8.577217168400001 18.3371682063  10.13548029455 8.2767608667 17.50968095305  10.39097477015 9.00026885115 17.3153870208  10.60591282715 8.512737237050001 17.99457454245  10.9629616243 8.4482573057 17.6519808786  7.9315227404 7.6048114279 14.36543006185  7.1839886638 7.78451873955 15.0568785671  7.1411161832 7.1773122801 15.0308296666  8.331437750000001 7.3570630076 14.94039610175  7.8886502598 6.99760496845 14.33938116135  8.7626856031 10.0597368776 13.9363242413  9.06103113985 9.5517773254 13.27616923735  9.371512271 9.68066793565 13.93766604605  8.302816859549999 9.359481636449999 13.79684350915  8.452204471950001 9.930846267350001 13.2748274326  7.992335728400001 9.230591026199999 13.13534670045  8.1417233408 9.801955657100001 12.6133306239  8.118417603299999 10.7174317699 17.5718623254  9.74288764315 10.6492198293 16.76352454485  9.132029726100001 10.72273823475 17.719535376  8.96870275965 10.13485608325 17.2753277442  8.729275520350001 10.64391336445 16.61585149425  9.5795606767 10.0613376778 16.31931691305  9.818987915999999 9.552280396600001 16.978793163  9.98231488245 10.1401625481 17.4230007948  10.1456418489 10.7280446996 17.8672084266  9.779411109350001 4.605672345 14.37032521375  9.4736534273 4.441022272250001 13.59851605085  9.262316138949998 5.0606102225 13.97492546665  8.426821330199999 5.2773143532 14.4867924165  9.15525358895 4.20278852545 14.5057827478  8.9439163006 4.8223764757 14.8821921636  8.638158618549999 4.657726402950001 14.1103830007  8.8494959069 4.0381384527 13.7339735849  9.461011271 4.3674385982 15.2775919107  9.0576995694 7.6284289274 11.3309503732  8.749514660799999 6.896562707499999 11.7536480482  9.213553711100001 7.0460298541 11.10566704825  9.51524487905 7.0883428278 11.56809573025  9.972790188699999 6.5482567282 11.8052410873  8.9053688025 6.3141636342 11.52836472325  9.20705997045 6.356476607899999 11.99079340525  9.671099020749999 6.505943754500001 11.3428124053  9.3694078528 6.4636307808 10.8803837233  10.6686404376 9.1620015968 14.64225514495  10.6626815085 9.643516089 14.9232206915  11.47758065085 8.998033561050001 14.3144331816  11.47162172175 9.479548053249999 14.59539872815  11.0665240103 10.0709805334 14.5029481238  11.0724829394 9.5894660412 14.22198257725  11.0784418685 9.107951548999999 13.9410170307  7.2284495336 2.1921727791 14.2954933799  8.038972720249999 3.1151556159 14.0147334824  7.24281747165 3.13664962675 14.0932479297  7.85459271515 2.68186694615 14.60507378105  8.480735896700001 3.1715611132 14.9146541822  8.6651159018 3.60484978295 14.32431388355  7.8689606532 3.6263437938 14.40282833085  7.2571854097 4.0811264744 13.8910024795  8.0533406583 4.059632463550001 13.8124880322  9.9942960826 5.9513467475 14.9446337791  9.2236806013 5.79802725075 14.00017318705  9.4553849401 5.7099991908 14.09115478755  10.0074179775 6.135043447899999 14.22909386835  9.210558706400001 5.61433055035 14.7157130978  8.671647563899999 5.37298299365 13.86223410625  9.468506834999999 5.8936958912 13.3756148768  10.9273646666 9.731788695400001 12.951314077  11.00290326755 9.419870122199999 13.44616555385  10.99694433845 9.901384614400001 13.7271311004  10.45385180275 9.516693844550002 13.4451609639  10.5293904037 9.20477527135 13.94001244075  10.5234314746 9.68628976355 14.2209779873  9.362553453949999 9.1690608369 14.4161908155  9.66023618815 9.935996976350001 14.79942425695  8.753726786049999 9.548129778850001 14.41484901075  9.051409520250001 10.3150659183 14.7980824522  12.7395642449 6.7583611948 15.0292844907  11.6333913867 6.0298570008 14.76623645475  11.45244131415 6.439613043650001 15.4138343267  12.0700831908 6.6850514816 14.62130562935  12.3028724408 6.103166714 15.1742153161  11.88913311825 7.09480752445 15.2689035013  11.21965206415 7.021497811250001 14.86092463995  11.8661806367 5.4479722332 15.3191461415  10.2270541274 7.5886501448 18.3353174527  9.830548262700001 7.3113823295 17.38092269205  10.47270682755 7.0482932542 18.043483363  10.6294930381 7.525318794049999 17.86722358825  10.2329871734 7.248050978749999 16.9128288276  10.87514573825 6.984961903449999 17.57538949855  10.7183595277 6.5079363636 17.7516492733  10.07620096285 6.7710254389 17.08908860235  9.434042398000001 7.0341145142 16.4265279314  7.3067023979 6.2191083282 15.8632816971  6.7988189484 5.1195148485 15.80765184835  7.69885045445 5.157373800249999 16.01797265215  7.02998640735 5.7125679971 15.4556885443  7.07553493895 5.6260551796 16.21524500115  6.84436748 5.033002031 16.5672083052  7.422134463900001 4.650833469149999 15.61037949935  7.467682995500001 4.56432065165 16.3699359562  6.7532704168 5.206027666 15.0480953915  8.090998511 4.0956392723 16.1726636072  10.9065411744 9.4706781737 18.3171853022  10.90378692525 9.959763599399999 17.2006737099  11.42213990435 9.30394386505 17.8
[...]
<PointData  Vectors="u"> 
<DataArray  type="Float64"  Name="u"  NumberOfComponents="3" format="ascii">1.3232579825920643e+01 4.2149487078556414e+00 2.8276680261905113e+01  6.8790017639801164e+01 -7.2323267094907195e-01 3.5929311808246744e+01  5.3923244126733202e+01 1.4934604107235614e+01 4.1266435075645781e+01  6.1293947370453324e+01 3.5068788347350138e-01 2.4030509466620021e+01  1.6361233994946414e+01 1.5505507486244645e+00 5.4230141361260571e+01  4.6078923326231198e+01 1.4252525873641526e+00 6.7570612145324745e+01  8.5078286932769601e+01 1.1877934310610136e+01 3.1184235532580715e+01  6.7183306236567489e+01 1.2532113580405301e+01 4.9607944805688817e+01  9.4358100062857901e+01 3.0153235654888308e+00 1.9322649507153951e+01  8.0901932781776878e+01 1.9366718280402271e+01 4.2907833962629155e+01  9.5451662681207850e+01 1.5796985291564296e+01 8.2708333381153395e+01  1.1890277861243719e+02 3.0835919531790214e+01 5.1877684266428808e+01  1.0143574018798701e+02 2.6487796384658921e+01 4.7665708472299841e+01  9.9597185797091484e+01 2.3632800804375130e+01 5.6598488882979304e+01  9.5427662073086367e+01 2.9080112688636714e+01 3.9305419448407939e+01  1.0928769231166018e+02 3.4837651726103502e+01 3.8442144185947505e+01  9.6477126057051819e+01 3.1903197915091205e+01 3.4988039913839373e+01  9.2397368619027290e+01 3.1776623323985596e+01 2.9854263122266129e+01  1.0768980277638579e+02 3.2521568308155253e+01 3.2423359768889156e+01  1.2227552817049018e+02 3.3877347361247757e+01 3.5150153020355283e+01  2.8299462664993406e+01 2.6663874153172017e+01 5.1223541647550221e+01  6.6058407660593772e+01 2.1279633382072266e+01 5.7994088811183396e+01  7.0561717023693916e+01 2.6582631190926584e+01 3.4013255769040462e+01  5.8294532084721965e+01 2.0730829956465946e+01 4.6138340497454514e+01  4.0403354746599760e+01 2.5583191401723429e+01 6.8891193058113444e+01  5.6817562354794433e+01 1.7302896810907246e+01 8.0218983456454907e+01  7.0462313645481558e+01 2.6771616138917530e+01 4.5799180830357479e+01  8.6796906901617405e+01 2.6555090761027376e+01 3.5672853946490697e+01  8.9012116521309167e+01 2.4113850855023085e+01 4.3879691809784823e+01  8.8824706411123941e+01 2.0903830993430145e+01 3.6908490201521133e+01  1.0080082900445396e+02 2.2576393311638036e+01 3.9900321388195202e+01  9.0484179354394499e+01 1.6645782001212961e+01 4.1231480343809913e+01  8.9195530990855232e+01 4.8657103410609919e+00 3.0946340355962768e+01  1.0348627311256051e+02 1.6730080092490685e+01 2.9832012868912713e+01  9.1208277438052917e+01 1.0507361524935128e+01 3.0907888723970117e+01  1.0661664776731845e+02 1.5049978715183457e+01 2.7484475268606008e+01  1.2942552582133541e+02 2.7882936640430639e+01 3.0545647534984912e+01  8.9462444852819772e+01 1.5320285139793871e+01 2.8903009987630281e+01  1.2952970721708161e+02 6.2134626290141107e+01 3.7751686973391543e+01  1.2955470795690454e+02 4.3384840584806959e+01 3.7682106394309379e+01  1.2446944581382812e+02 5.4669665084228278e+01 4.1822631208072949e+01  1.3716436500374812e+02 4.1514865508003759e+01 3.8727215730511453e+01  1.4749810433276110e+02 2.8761517933160018e+01 3.9187872708896940e+01  1.3463012689044967e+02 3.2284753363900521e+01 3.4371043094041589e+01  1.3643399890385902e+02 4.2045830208826068e+01 3.6635197375810272e+01  1.2049229435841855e+02 5.1972517318162829e+01 3.5405996812304394e+01  1.2292428719569543e+02 4.1891741808120528e+01 3.5375473129456516e+01  1.3202747056158731e+02 5.9010353649903109e+01 -6.4556517581148071e+01  1.0802379068277128e+02 5.3961823662486957e+01 -3.9873081228088758e+01  1.3375492103972823e+02 4.7573758182502260e+01 -1.1002735406663319e+01  1.5880641319215835e+02 7.1209230346059044e+01 -6.2255917607304610e+01  1.7060625510033313e+02 7.6669231531901360e+01 -5.1493539862201004e+01  1.1876618857132839e+02 6.0322053371726682e+01 -3.6225146145943640e+01  1.4375832096934187e+02 5.4677980180804965e+01 -6.2866676452488894e+00  1.2844227294256225e+02 4.4392812199682119e+01 1.3703114465875053e+01  1.1616594321243174e+02 4.8826339577006181e+01 -8.0682132248253435e-01  9.7706952106144627e+01 4.9830615296297609e+01 -1.4383170167822602e+01  9.4343131477921290e+01 3.4724287843520507e+01 6.8101329671288937e+01  9.8508526151395486e+01 1.7961048547703438e+01 4.9116540728402491e+01  1.0760052383309561e+02 2.5448020201893673e+01 4.6777123224854648e+01  9.8514999140971284e+01 1.6976992335766624e+01 4.3354236801428634e+01  1.0570520232959892e+02 3.4619574432191072e+01 7.1496101035383674e+01  9.9409095161264247e+01 3.4156928800411585e+01 7.7394867864240609e+01  1.0618539378329170e+02 2.4021772609679882e+01 5.6207134101692851e+01  9.5396051767981021e+01 2.5505833936924187e+00 4.1676874874923648e+01  1.0302342102297771e+02 9.3194994245439773e+00 3.9605395393117114e+01  1.1243946362104280e+02 1.6688623454627148e+01 3.9548594157490719e+01  1.1291304487642981e+02 2.3720451426163727e+01 1.9739289255520220e+01  1.1867219445915714e+02 2.8567804543522872e+01 2.9174555153326637e+01  1.3312401442471375e+02 2.6839819795001873e+01 2.7156822944644706e+01  1.2162342841450605e+02 3.2817855766594640e+01 1.8112495264745199e+01  1.2402574692625272e+02 3.7920760251011515e+01 2.7370465497388182e+01  1.4134970525227214e+02 3.7582186681944080e+01 2.7798479767428727e+01  5.8851689602863331e+01 9.5981379350039369e+00 3.6925889563005065e+00  5.0925846533563394e+01 7.6558068565449258e+00 4.2232343649554531e+00  7.0298019989580609e+01 5.6108068545458663e+00 1.0339990576340913e+01  6.1868899661331582e+01 1.1492117590394654e-01 2.8793305455411922e+00  6.4443384904468985e+01 2.6530179999010933e+01 1.6446997877249252e+01  5.1829271044932462e+01 2.0149314456304680e+01 5.9550957280130419e+00  6.9109494957732025e+01 1.6880135229699274e+01 1.1579806253471789e+01  7.8218154207221502e+01 1.9959774823071054e+01 2.1936325191880272e+01  4.3951409427678591e+01 3.2156795117525519e+01 1.1445601431015875e+01  6.5414463102967332e+01 -1.0821667488448510e+01 -2.9313234387469489e+00  -3.5671642162680761e-01 2.5916171133210821e+00 -1.0928910646305697e+01  2.8760070975681615e+00 8.3042645416644467e-01 -1.3305069796901707e+01  9.3537308189244095e-01 1.0968041606180192e+00 -1.2890394369056599e+01  4.6776533237399365e+00 1.5995385481779589e+00 -1.4671573464892720e+01  1.1271018941565578e+00 3.2052536639243310e+00 -1.0941289502365274e+01  4.3231057071823784e+00 1.2869960554626723e+00 -1.6708946216266661e+01  5.0312151246435395e+00 6.7802463516539013e-01 -1.7273747788156722e+01  3.5538050324906947e+00 3.0812567539083981e+00 -1.4191474109209501e+01  1.5225736827314302e+00 3.5200364927644214e+00 -1.0521704385717495e+01  5.0364572427513091e-02 4.0440978657441340e-01 -1.3187457694367593e+01  8.5571656368349906e+01 2.4390438871774101e+01 4.7320505437395333e+01  8.9149169959753948e+01 2.8860705583235472e+01 3.9182302195432989e+01  9.6153295484961887e+01 2.4806216614093113e+01 4.7299303341703158e+01  8.6378119822058949e+01 2.3042989350284408e+01 5.1088398105432177e+01  8.5945698661008421e+01 1.9084521341873945e+01 5.6579789567480567e+01  9.4516743037222867e+01 2.0169821537931160e+01 4.9643315787727808e+01  1.1463226531488368e+02 2.2638061069732494e+01 4.3172908509680539e+01  1.0378166530226719e+02 2.6695471958205250e+01 3.7185154962366383e+01  1.2137249714166835e+02 2.6767337763012083e+01 3.8821794819825698e+01  1.4986745850238106e+02 2.5340132814326171e+01 5.9445482701855809e+01  1.4056153086830449e+02 2.9616060418808779e+01 4.4107115346047301e+01  1.5789355832495428e+02 3.6677992156020245e+01 6.8435370590909741e+01  1.2831575615298152e+02 3.9702770836318123e+01 6.3092942389458223e+01  1.1873361133514699e+02 4.4254555297696079e+01 4.0646351995863085e+01  1.2549340552331880e+02 4.0198311068029398e+01 6.9390664672737117e+01  1.3064095054475899e+02 5.5753449397313922e+01 3.6354709279538930e+01  1.1115395014334487e+02 4.7709340314243470e+01 4.2825706602976723e+01  1.2012802703743009e+02 5.8649834835627956e+01 4.6445697131048071e+01  1.0742287180474490e+02 4.2014664024172440e+01 6.2021379191466899e+01  5.5692732165407406e+01 3.9786506482317314e+01 -5.9440327974726934e+01  8.1789975280682995e+01 3.7976476003143809e+01 -3.6704118018298175e+01  1.0204236421656357e+02 2.9188012023779198e+01 -3.2516651668593269e+01  8.6048124583271942e+01 5.1733667177061598e+01 -6.2528755099175591e+01  1.2824390514380585e+02 4.2367151112004578e+01 -6.5535296502098618e+01  7.6232257174789822e+01 2.6223836103228784e+01 5.3537548284920398e+01  5.3959642527294250e+01 2.3574856406077689e+01 8.4606386613726443e+01  4.7218270331430553e+01 3.1028480224135389e+01 7.7677990913726134e+01  6.9816217736177975e+01 3.1742951188147867e+01 4.2620557882205240e+01  7.9066706046146209e+01 3.0207625621458483e+01 5.2761419905760093e+01  9.6401179871332019e+01 1.3913401213084070e+01 4.7165006279031303e+01  1.0051818845597924e+02 1.9424343314603579e+01 5.5212726067051570e+01  1.0414000407587156e+02 1.8569858087359069e+01 4.5817410845820746e+01  8.9405475944800102e+01 1.6158342020934573e+01 5.3143692571418740e+01  9.3473730070744793e+01 1.6399265009331703e+01 5.4068814460620196e+01  8.7717475280169182e+01 1.8489343346097655e+01 5.6121099016636656e+01  8.6695177900139825e+01 1.8112610249239406e+01 5.8197228937561349e+01  9.9949844177222804e+00 -2.7536194292222856e+01 -1.5670496157257830e+01  9.9745890352290019e+01 2.5337759751446121e+00 -9.1152103082962910e+00  6.6051496167122693e+01 -1.3399029166706310e+01 -2.6268792550032892e+01  5.2577204604089800e+01 -1.9859272750691417e-01 -1.1310289807311044e+01  5.6545375756535115e+01 -1.2548025661376149e+01 7.2989374048807827e+00  9.0569409878862672e+01 1.0078230574985936e+01 4.1443269485246415e+00  8.7154778314616905e+01 1.8194990235715053e+01 -1.4099295776303888e+01  9.3650524790396389e+01 1.1091748562712567e+01 -2.7632062029647841e+01  1.0160268307260002e+02 3.6401152427396810e+00 -4.2631745248686123e+01  7.6890647989538650e+01 2.3934405265054313e+01 1.5294503006869824e+01  7.9763091184898386e+01 1.1888119590818222e+01 1.7181867150122994e+01  8.4191519738515680e+01 2.1229109454015763e+01 2.3181004509873414e+01  8.3787315601381280e+01 2.7230965947559241e+01 3.0423543287140227e+01  7.8895583375506689e+01 1.5377804321041747e+01 1.3634375079952378e+01  7.9239156705341813e+01 2.5192820277993658e+01 1.7063323372571890e+01  8.7622874939272435e+01 1.6453291469798767e+01 2.2741673856204223e+01  8.6170606300807876e+01 5.2673548389525173e+00 1.5272123900214057e+01  7.3469884419481588e+01 2.4517117631410819e+01 7.0832010007431698e+00  5.3600833186492103e+01 -6.4602058012037888e+00 6.9723789276924535e+01  7.4754300220018550e+01 -1.5498515995837239e+00 4.5519092996823083e+01  4.4536625662145468e+01 -2.6489900016650040e+01 6.1194068310531009e+01  6.1839798426905197e+01 -9.2000298161627860e+00 7.6250992728566246e+01  7.5623189230272374e+01 -1.7158115538518901e+00 6.8559958049940562e+01  7.1962565624080597e+01 -1.1717101081995372e+01 3.1656443196618355e+01  7.7020186118347624e+01 -1.5501898995868153e+00 4.4110412246924760e+01  5.5294740726458762e+01 -2.3569562964287094e+01 5.4846830665585159e+01  4.6103837280932034e+01 -3.9213228073955648e+01 3.4765265285220231e+01  1.2390216564306409e+02 2.5016539313008689e+01 3.1102288780002784e+01  1.2499977159559089e+02 2.1402577875100476e+01 2.6629431256786390e+01  1.3612030302974185e+02 2.8197786121803695e+01 3.6173720139287518e+01  1.3841147025000572e+02 2.3285742966541445e+01 3.4857598039809837e+01  1.3187342473540727e+02 1.9849684533891768e+01 3.1926981748441619e+01  1.3188712726539725e+02 2.2644135843249796e+01 3.5032411346162299e+01  1.3133702400176142e+02 2.6518113081087851e+01 3.7139020330037390e+01  1.0288458548307163e+02 -6.5411760954581837e+01 4.7412334342241060e+01  9.8509343740600244e+01 -1.6743637496345890e+01 2.2310026316071355e+01  1.2301951518528269e+02 -1.9105049092789002e+01 4.2359480322255003e+01  8.1297082618103005e+01 -2.9101453408891153e+01 2.0080365046814414e+01  7.4571554781820907e+01 -6.3824179251753215e+00 9.3004298519228126e+00  8.1543990621847868e+01 1.8963275891270752e+00 1.4026106055198310e+01  9.6210725077914333e+01 -9.3265998351150303e-01 2.6395447305892723e+01  1.2533675747805493e+02 1.2302257508977101e+01 4.1689826908780148e+01  1.0209625238775284e+02 6.4605774164468395e+00 2.4795591724668078e+01  8.9567560803673217e+01 3.8266877548278337e+01 1.7961916461842499e+01  8.6818157674170450e+01 2.5836379059270612e+01 2.9527496353813067e+01  8.6828524341204485e+01 2.7055743691012019e+01 2.7510601958092334e+01  9.3313028274493632e+01 3.4129953882754471e+01 2.8591972184352493e+01  8.1743246804287452e+01 3.1024739654481316e+01 2.2744457351296511e+01  8.7802572480578561e+01 2.0718312923728032e+01 2.9506486336284997e+01  8.8206210753067651e+01 2.0543785008887447e+01 3.4365861298273707e+01  1.4673346077052210e+02 2.2746101554404191e+01 3.8662388060643330e+01  1.3475486416097644e+02 2.4201971173579103e+01 3.5516299563425591e+01  1.3234122400497057e+02 2.1033727093874042e+01 3.5998020277482759e+01  1.2841054740583994e+02 2.3265081440973123e+01 4.5174162813184118e+01  1.2393097264389581e+02 2.4497753946755161e+01 3.9071072639754966e+01  1.2356440956637371e+02 2.1334607564069348e+01 3.5370417444929416e+01  9.9031688425627877e+01 2.0525887696208422e+01 4.0279317343167847e+01  1.0535251811876883e+02 1.5844992393901409e+01 3.1609968614482241e+01  8.9571842250867235e+01 1.5285889812688696e+01 4.6255247367072549e+01  9.6423702335287857e+01 8.5473416003580063e+00 3.4542830618852456e+01  1.6591190462131212e+02 6.8993296144320936e+01 5.3903924865846861e+01  1.1975039194848412e+02 6.2391236724219659e+01 2.7834279258682457e+01  1.3051824932072432e+02 5.8229650067384902e+01 1.7309989618068720e+01  1.3713981253895949e+02 6.0404630071787011e+01 4.0149204267488287e+01  1.4825950609943536e+02 7.8466538861620961e+01 3.5830384496605717e+01  1.5076698082603878e+02 5.4043486886462354e+01 2.8910902913319724e+01  1.2474342757283256e+02 4.7570112049512964e+01 2.7225783636043676e+01  1.2110701195825095e+02 8.0147544965114889e+01 1.7264323291852300e+01  2.6059229129930451e+01 3.7382926542303338e+01 -4.7269994860703797e+01  6.5862981349705052e+01 3.8823387783823506e+01 -2.2740827797153379e+01  3.8974899485299545e+01 4.6949282615503826e+01 -6.8430013434931553e+01  6.6477223143915850e+01 5.2734049040432247e+01 -7.1448650671533343e+01  9.0495280204090264e+01 4.4223124814376135e+01 -2.3075316365726763e+01  8.6178484845290882e+01 5.4887340025788866e+01 -8.2343605935354319e+01  5.2357441071766203e+01 4.4449701385652851e+01 -6.6747251762390121e+01  7.6570262992915076e+01 4.2560828384661377e+01 -2.3191071092843160e+01  7.3258890370391654e+01 3.9921116506831751e+01 -4.4936598333332284e-01  2.7613874686730625e+01 5.9062216498333051e+01 3.3094420121614839e+01  3.0204568868865120e+01 6.1138220455393039e+01 2.9163944794428321e+01  5.5113091468575476e+01 4.6370412517651033e+01 9.9917090673971209e+00  3.1560809740012864e+01 6.0634360631367741e+01 5.1498646987117034e+01  2.8257761765140376e+01 6.7458239398102833e+01 1.3626485795416823e+01  5.0146206578759532e+01 7.6408004308579336e+01 -2.4006165700365134e+01  6.1543903018631063e+01 3.9565435345389020e+01 1.9975137809695823e+01  6.7928185168495745e+01 4.7045150429078717e+01 -1.3164870144061409e+01  7.5177213616954859e+01 5.3625843286034559e+01 7.8718979575186253e+01  7.3981321010179201e+01 2.5038450437084556e+01 -5.5389942961659031e+00  1.0758609316934474e+02 3.3381321523206118e+01 -9.0508547388562889e+01  1.3023123920548568e+02 2.3082826167551460e+01 -3.5575212229538053e+01  1.3906424243995087e+02 3.7304076158815981e+01 -7.4054808034929493e+01  1.6020542530785386e+02 4.1398457784479582e+01 -8.3492964306850780e+01  2.0148881755275914e+02 3.4987436083687825e+01 -5.1852276521954593e+01  9.8274214039374257e+01 3.0555902509310879e+01 4.8812146062453010e+01  1.0442043102091820e+02 3.1001791242858744e+01 5.2003540481820515e+01  1.0451436828876859e+02 4.0086809498552356e+01 3.5976731368264907e+01  1.4139041301893286e+02 3.8455002586747113e+01 3.1546437823195468e+01  1.3590397982228171e+02 3.1621325745760558e+01 3.5485054944501307e+01  1.3019432630295668e+02 3.4872866291535729e+01 3.8415095199328483e+01  1.3688471430416513e+02 3.2437036375620615e+01 3.5704016377571484e+01  1.2717950582285627e+02 3.0358992214353808e+01 3.5967101931356659e+01  1.3825219711025047e+01 6.0870516379413244e+00 1.6448317456065066e+01  4.4943109718222139e+01 2.5078171874328219e+00 1.3451005971908452e+00  3.2065654712412496e+01 2.4772394462020287e+01 1.7043786039250122e+01  2.8022739086874537e+01 4.1810278661373319e+00 -9.0602048481597885e-01  3.4971939996651280e+01 -2.0149856161180244e+00 -9.5868943988267539e+00  4.8910986895011661e+01 -5.8750009627417334e+00 -6.9373213187523639e+00  3.5638479268690176e+01 1.0449199044456583e+01 1.3365402378399915e+00  4.2491430327060471e+01 -3.3121462593827680e+01 3.4374742466832998e+01  1.1098030285953253e+02 -8.1295590081562690e+00 5.9382631426469025e+01  7.6020025412092323e+01 -1.7958311597446507e+01 1.7370707887592676e+01  8.3100062983439258e+01 -5.9412780906861670e+01 5.7500518232496155e+01  1.0920027943361237e+02 7.4084102206322385e+01 5.3455960374961805e+01  8.7448179941166856e+01 5.5152293481599401e+01 3.2497892019285423e+01  8.8364490050042960e+01 7.1739015904451350e+01 5.3490783255902635e+01  9.4151245244750868e+01 5.7790979704534173e+01 5.9846930865670132e+01  7.3174141812501418e+01 3.7714995578322501e+01 5.8862136770612217e+01  7.8097738618767565e+01 3.7836265450976342e+01 2.6902767290417525e+01  6.9450382797307725e+01 5.3867439579752464e+01 6.1371730077213677e+01  5.4469782373288204e+01 6.6293744061200499e+01 5.3466789420732816e+01  6.9570155824983814e+01 4.7824004196235599e+01 2.4719020811355609e+01  7.4525630440864546e+01 4.2351170356806854e+01 1.1313034941756317e+01  6.8746355817927622e+01 3.7639701593801675e+01 -5.7593763793989661e+00  6.8753440970755278e+01 1.8425264174014114e+01 -4.5106567166775644e+00  7.1947345185500666e+01 3.3377994675152330e+01 -4.7283509407328168e+00  7.1998270486374508e+01 3.1416247526634901e+01 1.1413126003903213e+00  7.2796567127111601e+01 2.2470265473691637e+01 4.6348082839444427e+00  7.8445439324708104e+01 3.1814873081681213e+01 3.1599034668780728e+01  8.3681969692122877e+01 3.2021864247378957e+01 5.1353597495268097e+01  5.1686851552688815e+01 3.7461953994708423e+01 8.1937525745423912e+01  5.0714658810309380e+01 4.0362459102603339e+01 3.7424092197304688e+01  7.5216253529091816e+01 4.9138288804873710e+01 8.1473993010798722e+01  5.8989403864281165e+01 4.1016765969703364e+01 3.9135088157543613e+01  6.8180658903517653e+01 3.9570477237132664e+01 1.5781371203521042e+01  3.3236115557184739e+01 6.1248016793960211e+01 2.3392129363032783e+01  4.4428843593055554e+01 4.4715660801999121e+01 2.8069265019682646e+01  5.8367100281985770e+01 9.9142919553001448e+01 4.5424936692161808e+01  4.8382274962660496e+01 1.1922006679051320e+02 3.3553615699130866e+01  6.7287136768393935e+01 6.8013923427077941e+01 1.8521679321749410e+01  5.9541407135790664e+01 3.8484892485970342e+01 1.2501295581346190e+01  1.9015680638664268e+01 9.6685252500625481e+01 -3.8619654895414954e+00  9.5556693111262717e+01 1.0067894269531405e+02 2.7447860067200150e+01  8.5833476782608827e+01 1.0406500190261957e+02 1.0379464381400361e+01  5.9416217499441558e+01 6.4945626026320269e+01 7.9791110502155265e+00  2.4256668662829064e+01 1.1439453961806633e+02 1.5336234073234332e+01  9.0107679656127289e+01 6.0709487374414252e+01 1.2108319841751774e+01  5.7046721815288592e+01 -4.1592936196325407e+00 -2.4316596579040892e-01  5.8553576380488465e+01 1.1821633729049403e+00 3.4861240408293676e-01  6.7517883214145741e+01 1.7927666491797640e+00 5.8790877522686769e+00  4.8704879865321779e+01 5.3363490046141937e+00 -3.8160371069988080e-01  3.9898141455692574e+01 -6.3922279036746732e-01 -2.1596062225947867e+00  6.4508548399739823e+01 -7.3690389181267406e+00 -9.7932540818611602e-01  6.7425821047958877e+01 1.7009125725306600e+01 6.3645078900975367e+00  6.7133138570080888e+01 8.8370478506113468e+00 -7.2846294731312233e-01  7.3325029935628621e+01 1.1791864300677007e+01 7.4330931221994252e+