<?xml version="1.0"?>
<VTKFile type="UnstructuredGrid"  version="0.1"  >
<UnstructuredGrid>
<Piece  NumberOfPoints="5703" NumberOfCells="25618">
<Points>
<DataArray  type="Float64"  NumberOfComponents="3"  format="ascii">2.8141130012 20.6498307793 13.4102700693  3.3606624986 19.27654453615 13.85134351185  3.7019161644 19.57310750945 13.5374386525  2.91712655825 19.83455911205 13.1877397902  3.25764894155 20.0918162034 14.07387379095  3.25838022405 20.13112208535 12.87383493085  3.7011848819 19.5338016275 14.7374775126  3.7026474469 19.6124133914 12.3373997924  3.3613937811 19.3158504181 12.65130465175  3.0201401153 19.0192874448 12.9652095111  3.9816055423 22.8713575056 10.9348504721  4.4692525655 21.8072378692 10.50090076415  4.85563702195 21.57141718595 11.0565565569  3.7990344503 22.0989985094 10.8033537099  4.6518236575 22.5795968654 10.63239752635  4.18541890675 21.86317782615 11.35900950265  5.3220417727 22.2878362252 10.3299445806  4.3892322712 20.8549981467 11.7831685332  4.00284781475 21.09081882995 11.22751274045  3.6164633583 21.3266395132 10.6718569477  7.0081436545 22.7161851359 21.112076083  6.07955959185 22.1652514432 21.22946360715  6.0263724741 22.83855379795 21.0372665105  6.5473362798 22.4105455373 21.65754098275  6.54036696655 22.4708910418 20.6839987074  6.0725902786 22.2255969477 20.2559213318  5.558595786150001 22.59325970385 20.6091891349  6.0865289051 22.1049059387 22.2030058825  5.565565099400001 22.53291419935 21.58273141025  5.0446012937 22.96092246 20.962456938  3.4265748562 19.2685105816 10.7495756357  3.56461115155 19.4404619865 11.54348771405  3.01112267945 20.2814926054 11.2136025058  3.9079035637 20.06175436415 11.26637208445  3.1491589748 20.4534440103 12.00751458415  4.04593985905 20.23370576905 12.0602841628  3.49245138695 21.07473638795 11.73039895455  2.5956705027 21.2944746292 11.6776293759  6.4000741989 20.1833980187 19.9993675858  5.821239037450001 19.37026651615 19.32133395465  6.0395860067 19.36702832515 19.9827391071  6.49099861915 19.6638467072 19.50407779355  6.18172722965 20.1866362097 19.33796243335  5.9633802604 20.1898744007 18.6765572809  6.2726516499 19.6670848982 18.8426726411  6.5819230394 19.1442953957 19.0087880013  6.13051042695 18.84747701365 19.48744931485  5.6790978145 18.5506586316 19.9661106284  7.2719270535 16.8273787855 22.9330942798  7.453772180650001 16.96869625265 21.76727009935  7.08730023345 16.46387461275 22.30103350675  7.699311821249999 16.84381934375 22.1791352256  7.6383990007 17.3322004254 22.3993308724  8.004870947900001 17.8370220653 21.865567465  8.06578376845 17.34864098365 21.6453718182  8.126696589 16.860259902 21.4251761714  7.5146850012 16.480315171 21.54707445255  6.9026734134 16.10037044 21.6689727337  3.3275293119 14.5850736883 17.7657523811  2.78152938695 15.62076609935 18.60773489545  2.89902644415 15.7805234244 17.8208883154  3.51080149915 15.2845306702 18.0758002567  2.7157542569 15.0810664425 17.5108404398  2.5982571997 14.92130911745 18.29768701985  2.1039792019 15.5770591967 17.2559284985  1.9864821447 15.41730187165 18.04277507855  1.8689850875 15.2575445466 18.8296216586  3.6940736864 15.9839876521 18.3858481323  5.8162446487 19.1311502995 11.570288013  6.16861494105 18.3782560322 12.2848833207  5.53787529505 18.4337908758 12.54813492735  5.47870645235 18.04142338325 11.8270066288  5.141168256 16.951696467 12.0837252446  5.831076744700001 17.28852911595 12.5416019365  5.2003370987 17.34406395955 12.80485354315  5.2595059414 17.7364314521 13.5259818417  5.8902455874 17.6808966085 13.26273023505  6.5209852334 17.6253617649 12.9994786284  2.7912320329 20.5415710974 17.1768446895  1.8325412523 20.226916579 16.72695268565  2.2387221826 20.00053005985 16.43192482315  2.3023885737 20.87356314895 16.7999749446  2.3213847115 19.89492452745 17.10382243055  1.8515373901 19.2482779575 17.0308001716  1.7688748612 19.3538834899 16.3589025642  1.8135451145 21.2055552005 16.4231051997  1.7498787234 20.3325221114 16.05505507825  1.6862123323 19.4594890223 15.6870049568  4.6559240143 24.5145761927 17.9107918083  4.284168173 23.3968926627 18.0862595318  4.0852873935 24.0641960953 17.9885420365  4.57796401265 24.00179718515 17.4519885834  4.8548047938 23.8472727601 18.0085093036  5.0536855733 23.1799693275 18.1062267989  4.776844792149999 23.33449375255 17.5497060787  4.500004011 23.4890181776 16.9931853585  4.00732739185 23.55141708775 17.5297388116  3.5146507727 23.6138159979 18.0662922647  2.8349494553 21.121766247 18.35093976045  2.8746540956 21.15943701185 17.46579125735  2.29885529325 20.9811412367 17.78060199615  2.7515273926 20.50390033255 18.0619931926  2.7118227523 20.4662295677 18.9471416957  2.25915065295 20.94347047185 18.66575049925  1.8064785536 21.420711376 18.3843593028  2.38227735595 21.59900715115 18.069548564  2.9580761583 21.7773029263 17.7547378252  1.2186941951 16.0647885349 23.8283249515  0.9369499823499999 15.6263706109 23.2333105475  0.8620951443500001 14.90454231075 23.4069857373  1.7995417241 15.2861787786 23.7187869869  1.8743965621 16.00800707875 23.5451117971  0.2812476153500001 15.68315206705 23.5165237019  -0.6561989643999999 15.3015155992 23.2047224523  2.3803892531 14.5075690223 23.6092490223  2.4552440911 15.22939732245 23.4355738325  2.5300989291 15.9512256226 23.2618986427  -0.6561989643999999 15.638888473 12.3865265205  0.7178368682000001 14.74548344315 12.55557799855  0.6046888955 15.26603254985 13.0554901064  1.2017187649 15.29197547905 12.525733124  3.0596364942 14.9450624851 12.6649397275  2.5757545975 14.3985704492 12.69478460205  2.4626066248 14.9191195559 13.1946967099  1.8655767554 14.8931766267 13.7244536923  1.9787247281 14.37262752 13.22454158445  2.0918727008 13.8520784133 12.7246294766  5.2598946981 16.4845649205 17.4931894431  4.36906358275 16.9660241066 17.33780474295  4.452862235 16.7482794562 17.86575363105  4.4893109237 16.78768732805 16.84198927205  5.17609604585 16.7023095709 16.965240555  5.0922973936 16.9200542213 16.4372916669  4.40551227145 17.00543197845 16.31404038395  3.7187271493 17.0908097356 16.190789101  3.6822784606 17.05140186375 17.21455346  3.6458297719 17.0119939919 18.238317819  5.2013654867 16.1384189212 13.6778762277  4.59199230875 16.04984437105 12.8374447772  4.58422033185 16.7926914028 13.1757455449  4.11206557665 16.3109529807 13.3705185237  3.0227656666 16.4834870402 13.0631608197  3.9748471539 16.70411685265 12.3353140944  3.5026923987 16.22237843055 12.5300870732  3.4949204218 16.9652254623 12.8683878409  3.967075177 17.4469638844 12.6736148621  3.9826191308 15.9612698209 11.9970133267  3.6382480742 14.4946667409 16.2812422571  3.57909711315 14.72585746605 15.28492701215  3.95216991375 14.0829587185 15.6844051323  3.22031659995 14.10312234835 15.72715138865  2.8023851257 13.7115779558 15.1730605202  3.1611656389 14.3343130735 14.7308361437  3.5342384395 13.69141432595 15.13031426385  4.2660917533 13.6712506961 15.0875680075  3.8930189527 14.31414944365 14.68808988735  3.5199461521 14.9570481912 14.2886117672  1.7311481528 14.4965065568 10.9499496671  1.9115104268 14.17429248505 11.83728957185  2.6375519087 14.1542910723 11.4676550972  2.1058840351 13.8560135946 11.11641033515  2.4806199174 13.2155206324 11.2828710032  2.8179141827 13.83207700055 12.35499500195  2.2862463091 13.53379952285 12.0037502399  3.012287791 13.5137981101 11.63411576525  3.5439556646 13.8120755878 11.9853605273  2.6995723743 16.6621938767 19.3223610475  3.05015475745 17.48007523905 18.81099471945  2.74370236065 17.0821066092 18.23958961015  3.1727010731 16.8370939343 18.78033943325  2.1480273462 17.55018785635 18.8122665106  2.57702605865 17.30517518145 19.3530163337  2.27057366185 16.9072065516 18.7816112244  1.8415749494 17.1522192265 18.2408614013  2.454479743 17.9481564862 19.3836716199  3.9904116459 23.0488021852 12.5130232431  3.8607319627 22.2552511528 11.8885759826  3.3526471197 22.3644468799 12.38386617175  3.8651350145 22.3439734926 12.6776623681  3.4779237511 23.0692755725 12.21922704675  3.9860085941 22.9600798454 11.7239368576  2.9654358563 23.0897489598 11.9254308504  3.4735206993 22.9805532327 11.43014066125  3.7398583831 21.6391448 12.8423014931  1.4309572692 13.1986701111 11.5972465823  1.68461920745 13.15914706415 12.50996377615  0.7178368682000001 13.4906336771 12.3632303833  1.761414985 13.5253742622 12.16093802945  1.35416149165 12.83244291305 11.946272329  0.3873791524000001 13.163929526 11.79953893615  -0.6561989643999999 13.1291889409 12.00183129  0.3105833748500001 12.79770232795 12.14856468285  1.2773657141 12.466215715 12.2952980757  2.32502468215 19.5735226695 13.53367644955  1.9039644108 19.9439152982 13.36219992635  2.2220111251 20.38879433675 13.75620672865  2.4960662869 20.20495174075 13.016263267  2.1780195726 19.7600727022 12.6222564647  2.59907984395 19.3896800735 12.7937329879  1.629909249 20.1277578942 14.102143388  -0.6561989643999999 20.9562988286 15.6099493059  0.8514690578 20.3441064241 15.23893561995  0.4868551423 20.5420283614 14.85604634695  0.8514690578 20.77086325965 15.4502585231  -0.6561989643999999 20.52954199305 15.39862640275  -0.6561989643999999 20.1027851575 15.1873034996  0.4868551423 20.11527152585 14.6447234438  2.35913708 20.5854276907 15.2905677403  1.9945231645 20.35659279245 14.69635556415  -0.6561989643999999 14.6661819596 20.9823037845  0.69452389275 14.5998107044 20.3541206213  0.69452389275 14.8714834361 20.8676214842  0.1828260908 13.9936371655 20.5432543484  -0.6561989643999999 14.3945092279 20.4688029216  -0.6561989643999999 14.1228364962 19.9553020587  0.1828260908 13.7219644338 20.0297534855  1.021851146 13.3210923714 20.1042049123  1.53354894795 14.198938642 20.4285720481  2.0452467499 15.0767849126 20.7529391839  4.2793642128 16.6976038184 20.4432438786  3.7231349174 17.48711562455 20.9453191409  4.41250033675 17.3364873665 20.84974455605  3.84975537855 17.4490974389 20.33810278695  3.58999879345 16.84823207645 20.53881846345  3.4201465443 18.2005910594 20.2329616953  3.9828915025 18.087980987 20.7446034644 
[...]
<PointData  Vectors="u"> 
<DataArray  type="Float64"  Name="u"  NumberOfComponents="3" format="ascii">1.2533590468187204e+02 -4.9710048091280349e+01 -7.6233023066037347e+01  1.2466316784863878e+02 -6.3574460787854768e+01 -7.2615698643358783e+01  1.2662028094339968e+02 -6.2341760686578382e+01 -8.0567532106423982e+01  1.3251707863475795e+02 -5.3575647375701415e+01 -6.9997338263064435e+01  1.1720061293063452e+02 -6.0805842153415647e+01 -7.6172034999463648e+01  1.3366426516164381e+02 -5.0821636329726935e+01 -7.3119925615839122e+01  1.0344018912009902e+02 -7.0812424249509689e+01 -7.5742523778471394e+01  1.4556666202071574e+02 -5.6149798065520820e+01 -7.2041584956013963e+01  1.4192987296863117e+02 -5.8375210391032887e+01 -6.8213967316559774e+01  1.3903805273223017e+02 -6.1195583056689010e+01 -6.5608703075009799e+01  1.2731293892656612e+02 -3.7006394865473474e+01 -5.5427708841824533e+01  1.6108232390170218e+02 -5.7149167523409346e+01 -8.9485721514442318e+01  1.5027464144730322e+02 -5.7165152210065102e+01 -9.7458489845204170e+01  1.4449205724555864e+02 -4.0734863830275636e+01 -6.5003659809484603e+01  1.3873151666734151e+02 -7.0526550104550410e+01 -7.8607253335368995e+01  1.3980785679483847e+02 -4.2190591882568604e+01 -8.0047730575533876e+01  1.6893952177671750e+02 -7.6754326317515535e+01 -1.2895789231103876e+02  1.4497903876572016e+02 -4.8332566738942717e+01 -8.6402220474525521e+01  1.5314047403951415e+02 -4.1688907962599856e+01 -7.7740908440147265e+01  1.6387508082459112e+02 -3.5583838927718944e+01 -6.4761836746734033e+01  2.4362761136303715e+02 1.6474375470267344e+01 1.8356132267267256e+02  1.6693508547573379e+02 6.1595660564739978e+00 1.5738795510586795e+02  1.7832982422580119e+02 -1.4138529800388831e+01 1.6242785794963089e+02  2.1035151898312449e+02 1.1327152636230789e+01 1.6263804665514570e+02  1.8751313118323202e+02 1.4125850162990979e+01 1.7168822068090594e+02  1.4051794327331433e+02 -9.0054888382865972e-01 1.9700839335409526e+02  1.4078142411569414e+02 -2.1083871846005149e+01 1.6461697813022511e+02  1.9246003104994588e+02 1.3535473980060004e+01 1.3846521028950420e+02  1.5706567968558460e+02 -1.0027393673623575e+01 1.4365602812262651e+02  1.3995068318185818e+02 -3.1714421369228415e+01 1.5295068542250840e+02  2.1156095099705598e+02 -3.9520106717815096e+01 -1.7727260352682983e+01  1.6376199091504981e+02 -5.2591269113773748e+01 -5.7410611841324567e+01  1.5651055216955081e+02 -2.9356484566727694e+01 -4.7337231712744995e+01  1.6474862352672457e+02 -4.4147868195789044e+01 -6.8855473798370895e+01  1.4219837178082545e+02 -4.0446514163023984e+01 -6.6187047930794066e+01  1.4632357794229495e+02 -5.0685122202237181e+01 -7.9853982642088909e+01  1.4112890160578908e+02 -3.7536357690353725e+01 -7.1446871985005700e+01  1.2999140212001967e+02 -2.5748106411061936e+01 -6.2135110198553313e+01  6.0987259834195513e+01 -1.6991533916894713e+01 1.1174357458821675e+02  6.2458569727055895e+01 -4.1933944110293893e+01 6.3003404504965708e+01  6.4273399816417140e+01 -1.9398923449813328e+01 7.1969877476988970e+01  5.7509745150210726e+01 -4.4202075238917189e+01 8.0074946591487176e+01  5.0056585708103441e+01 -5.0132036713163878e+01 9.0737455615441746e+01  5.0303463444011783e+01 -6.2409158494146482e+01 7.6748435933125592e+01  5.8064878428762960e+01 -5.9535386249589997e+01 6.1505242245948629e+01  6.3234180241379647e+01 -5.5155838004171002e+01 4.8877475767674454e+01  6.3217434195062566e+01 -3.7732076968373072e+01 5.0376115338347212e+01  7.0099150013145362e+01 -2.3363463867097842e+01 4.4775109850575532e+01  5.1001288334070992e+01 -6.1400909180457155e+01 -1.2068906274172088e+01  4.9566132257212125e+01 -6.5671304983930227e+01 7.1782877405283259e+00  8.5139925024234429e+01 -7.0771279769119673e+01 -8.1724481680683114e-01  4.0400923287037749e+01 -8.5938907100974731e+01 -1.5729067432695814e+00  2.2356610797906299e+01 -4.1910415226415644e+01 -7.2135296298804228e+00  -1.3476975112418965e+00 -2.0887769188497469e+01 9.5213816395549138e+00  2.4322631671530046e+00 -5.4541508821243070e+01 6.7688884978043093e+00  2.1514768483585872e+01 -1.0285165173875018e+02 9.0017469623415778e+00  6.9970494916918028e+01 -9.0990513209785263e+01 1.1214477034812049e+01  1.0786600522143131e+02 -7.1229931835611595e+01 4.4398827058516499e+00  1.0530508477759702e+02 3.2181116062721365e+01 -3.2693590097442907e+01  1.0997373559952722e+02 6.7043371452566545e+00 -1.3785813366239749e+01  1.0716749680791857e+02 -6.1751606428573158e+00 -2.3800380308177932e+01  1.1282366852335518e+02 8.9147045060485510e+00 -1.3971989707926715e+01  1.0602239957502532e+02 7.8771918579674658e+00 -3.8732526992777984e+01  1.0390400696793196e+02 1.9613989007070241e+01 -2.4912712942339191e+01  1.1301584882534165e+02 -1.1766019560991211e+01 -3.2726228732902243e+01  1.0526130453521300e+02 9.2180297792841248e-01 -2.2648752793293355e+01  1.0397528844956705e+02 1.6446604734275319e+01 -2.1233146503101047e+01  1.1207184076631837e+02 -1.2552035589212638e+01 -7.9331991490147180e+00  1.4551926503135576e+02 -5.5504690393837969e+01 -9.2297150398257116e+01  1.5105354673473551e+02 -5.8114114197996798e+01 -7.7833241372834649e+01  1.4780214033462681e+02 -6.2037557693770509e+01 -8.0794411260832220e+01  1.4205034030731665e+02 -4.9509209059627565e+01 -8.0356939215447625e+01  1.4185610563242500e+02 -4.0348860821943177e+01 -6.8189376825955520e+01  1.4980948038389118e+02 -4.8321467508120385e+01 -6.5528438213167632e+01  1.4601221407998659e+02 -5.3030475638101180e+01 -6.9140307688802437e+01  1.4947526068380861e+02 -6.7022824451078066e+01 -7.6399831936712260e+01  1.5811200511937804e+02 -6.2880505451867499e+01 -6.9126096655585712e+01  1.6370849232182610e+02 -5.7904661737952637e+01 -5.9817349247357029e+01  9.3485735604132643e+01 -7.4157605804875942e+01 1.0786822540333299e+01  1.1749685817191821e+02 -7.0050277917173077e+01 -6.8068091793179863e-01  1.1065665743204090e+02 -6.7798573115366395e+01 -1.3120696040168951e+01  1.0697112266504621e+02 -7.9437897454657559e+01 -1.5928336708739064e+00  1.0438488419275524e+02 -6.5316719600180875e+01 8.7685430741411849e+00  1.1422943674143374e+02 -5.8431510133214992e+01 8.6316706252023536e+00  1.2145581543803557e+02 -6.0811201480485309e+01 -1.1493764876400776e+01  1.1840538379111985e+02 -8.2019562419196404e+01 -1.6611664148855365e+01  1.2320431977136178e+02 -6.8467124466744522e+01 -2.2807970324311420e+01  1.2994676978727131e+02 -6.1346655204669673e+01 -3.1190560997052291e+01  9.1877757860730682e+01 -1.2065737499162387e+02 1.0547426246475253e+02  8.7966860018411239e+01 -1.1866430856576629e+02 9.0019918906196580e+01  1.0752607188957876e+02 -1.3528399167095355e+02 9.1804451504784112e+01  7.1364787321288148e+01 -1.3015665760885187e+02 6.8098315661451466e+01  6.7142210646504623e+01 -1.2349490810716249e+02 1.0577530743494292e+02  6.5559932106171445e+01 -1.0452112354779804e+02 1.0093220695766841e+02  6.1496117400524923e+01 -1.2228322692624614e+02 7.2009073329452775e+01  5.9056144995714426e+01 -1.3109075534895561e+02 3.0981963828168336e+01  8.8210369828520527e+01 -1.3532416492165169e+02 5.5084121079238741e+01  1.1237314488937027e+02 -1.3862512708653040e+02 7.7285961012953493e+01  9.2195792725350884e+01 -7.8715574131690630e+01 5.7687700667569587e+01  9.2630200063300506e+01 -8.4178540312749604e+01 2.3937282069241810e+01  1.0222393355094549e+02 -8.1582141444014226e+01 3.7024918855730796e+01  9.1653684906370913e+01 -6.9141187350979592e+01 4.3258659735069621e+01  8.6975661677009114e+01 -5.9941791456167714e+01 7.0642149441460646e+01  9.7287309661431479e+01 -7.5114254325729490e+01 6.9960079302418166e+01  1.0843939919997976e+02 -9.1766243774597484e+01 6.7624190132809758e+01  1.0309346481378707e+02 -9.4284941012043930e+01 5.0716018470191415e+01  9.3981094370370272e+01 -9.7006091869619439e+01 3.8366613115471516e+01  1.1137965379001803e+02 1.2706748033238266e+02 8.7774410296402223e+00  1.1193431521092636e+02 1.1209655329449049e+02 -9.2403334363853791e+00  8.7404755155882086e+01 1.0925248488886511e+02 -5.6695902035067602e+00  8.4950831263315393e+01 1.2589879322302968e+02 -2.3211855733615945e+01  8.2628569855922208e+01 1.3114641896252206e+02 -9.9996743438850029e+00  1.2834745264797809e+02 5.3846492294304511e+01 1.2290282588532030e+01  1.3581176534625308e+02 6.8038098530416804e+01 5.6694296251193613e+01  8.9404608620564531e+01 1.1931198795903710e+02 -5.6372075820557143e+01  8.3405045773571885e+01 1.1404829979895190e+02 -4.1172521229587637e+01  8.0079406205116086e+01 1.1335831835131845e+02 -2.7114381836188610e+01  1.4688990351934200e+02 4.5553331204872322e+01 -6.3631559022245781e+01  1.3772319521042641e+02 -1.6771750047093402e+01 -6.0605301592643983e+01  1.3381141053754405e+02 -1.0654956434469145e+01 -7.0980095382179826e+01  1.3070884596426455e+02 -1.5483100142508718e+01 -6.4821485706978180e+01  1.3600985749443387e+02 -3.4662333763793164e+01 -5.5376120731485614e+01  1.3960558912485925e+02 -3.3660910423992078e+01 -5.3812704057515219e+01  1.3742580914221793e+02 -3.5240233075872439e+01 -5.9252073298510730e+01  1.3992430078034417e+02 -3.5854699545057670e+01 -6.2071651773635011e+01  1.3886536505046186e+02 -3.3533573542667064e+01 -5.6187386863182262e+01  1.4381630919568755e+02 -3.2606091548627433e+01 -4.9555071663386421e+01  7.3696512451056577e+01 -5.0701602710962170e+01 4.3636389148553810e+01  7.0039547124206578e+01 -4.8754321894713172e+01 -2.1781624992304835e+01  8.8036995353744516e+01 -4.3031557855502918e+01 -2.0636107371996806e+00  5.8737916152422905e+01 -5.8808159988643233e+01 -5.6357916271998661e+01  -3.3006007897268184e+01 -4.3569272099900644e+01 -4.4247932338177101e+01  7.3844874884189139e+01 -1.0260510042643574e+02 -1.2248011058437932e+02  9.1744959162614776e+01 -7.1803589856303972e+01 -7.5037338626810552e+01  1.0665971060378715e+02 -5.7601150474755826e+01 -5.5535783228958415e+01  9.5046797322907665e+01 -4.3070102518219095e+01 -2.4207282586914818e+01  9.5124861391401055e+01 -2.6688479169455459e+01 1.9724546501839439e+00  1.5094570431875221e+02 -5.2325959748154631e+01 -5.3828590205580944e+01  1.3982439329334579e+02 -4.1458126661539787e+01 -5.8086779230588107e+01  1.4145410730288140e+02 -5.1376466788277220e+01 -6.5661702015419991e+01  1.3872358267822221e+02 -4.8445446738229165e+01 -6.2698480658465705e+01  1.2966101294842224e+02 -4.4623884626783834e+01 -7.0830533466373467e+01  1.3293342401749786e+02 -4.1660563939364316e+01 -6.8082878791266197e+01  1.3135672561362469e+02 -3.8377937780666002e+01 -6.5032365383240091e+01  1.3163755742997847e+02 -4.9953102592480178e+01 -7.2134107220178109e+01  1.3495711195226102e+02 -5.4800902683796018e+01 -7.3963046084027766e+01  1.3278085411853004e+02 -3.1397729367291056e+01 -5.8143289244912992e+01  1.5867080592023146e+02 -1.4946125968956807e+01 -1.1929313333405504e+02  1.6174653280698226e+02 -4.6743475769412854e+01 -7.2620303273640232e+01  1.8997907599783656e+02 -5.3130286021155328e+01 -1.0038179739868731e+02  1.7474578421724152e+02 -2.6967867937937047e+01 -1.0675340601965256e+02  1.5744692922322093e+02 -2.9274601828492990e+01 -8.9829496098816421e+01  1.5306451231063403e+02 -4.1664729520662064e+01 -6.9334721851480893e+01  1.7864440525229165e+02 -4.8368633357391815e+01 -7.4299107884784476e+01  1.9833085725757294e+02 -7.5889078987754118e+01 -4.3202621503275800e+01  1.6402313003046612e+02 -5.1303956280394438e+01 -5.9469267292177854e+01  1.4847844391617642e+02 -4.6809125147733710e+01 -5.9424702165459500e+01  1.4347614629165358e+02 1.6362892517306600e+00 -4.6365998349146885e+01  1.4350029911891394e+02 -2.0156433525742631e+01 -4.4619758873500885e+01  1.4137616024000073e+02 -2.9665517807490712e+01 -4.5703626118566355e+01  1.5777901760875744e+02 -2.2405847596753002e+01 -4.4444215756974216e+01  1.6801221237905722e+02 -5.6216939848783575e+01 -5.6906625551433095e+01  1.4202136992510356e+02 -3.6746440074965349e+01 -4.8131014046024944e+01  1.5248100818369073e+02 -3.2693708677300428e+01 -4.5049854453613420e+01  1.3845601657761298e+02 -4.7078438396801765e+01 -5.1038597475344197e+01  1.3362786962127342e+02 -3.9734466262991418e+01 -4.5552187971211993e+01  9.5067612938781707e+01 8.3118309109429962e+00 8.4392941412749973e+00  8.9102238068227223e+01 -1.6398446924819890e+01 1.7269768776728089e+01  9.7502854785623853e+01 -1.8270137701212910e+01 4.2944484785178698e+00  9.7138615761264887e+01 -1.0922820746926948e+01 5.6580350145275613e+00  8.8119083628190893e+01 -9.6771542679068254e+00 2.8143874047033592e+01  8.6040198194546207e+01 2.6815866596025457e+00 2.4086881320795111e+01  9.4709572454474909e+01 -9.1016016187495530e-01 1.2974457737756785e+01  9.8959473044463977e+01 -1.1670831359884740e+01 1.6758279695009410e+01  7.8356779350569511e+01 -6.5411817343781715e+00 4.0747672880693855e+01  1.2656986964042385e+02 -1.3071294288771110e+01 -8.6125651980467310e+01  1.2902901671887241e+02 -3.0220727083469146e+01 -7.7710457566850408e+01  1.2257243973415643e+02 -2.4447468170120402e+01 -8.3712323844355765e+01  1.2507709517650424e+02 -2.6285542408079358e+01 -9.1420431084941782e+01  1.1800717512259887e+02 -1.3896047792233487e+01 -7.4955286644370290e+01  1.2742812856091513e+02 -1.7996210504138400e+01 -7.1414022916819945e+01  1.1313487963297113e+02 -1.0772899863719974e+01 -6.9813869555407052e+01  1.2520283477357168e+02 -1.9729245830938300e+01 -6.3789768054857575e+01  1.2576058434003473e+02 -3.8795037738731594e+01 -9.1375531154906753e+01  1.5886706512741225e+02 -1.7948620121901644e+01 -2.3348151975287781e+01  1.4701290439926646e+02 -2.8874333344426695e+01 -3.9915787672082068e+01  1.3437723825030983e+02 -2.5352173434683717e+01 -2.9505775009847149e+01  1.4893393038571017e+02 -2.6679282286477939e+01 -4.1511422732318827e+01  1.5604427852024037e+02 -1.9363380959971863e+01 -2.2949087110588135e+01  1.3741926981246641e+02 -6.9981232289362127e+00 -1.0554882123591563e+01  1.5443137045755330e+02 -4.0803289058886051e+01 -2.3691448774696305e+01  1.2840562798879327e+02 -3.4066314570991700e+01 4.7643124617240575e+00  1.4133327469891347e+02 -2.2493381216677321e+01 -2.2141489931775240e+01  1.3111125772061885e+02 -5.4572706762279182e+01 -6.3572221873170761e+01  1.3687812246169082e+02 -4.9066073496270356e+01 -6.2574907797702245e+01  1.2838450794525534e+02 -5.2353035284129398e+01 -6.8897383347458842e+01  1.3134437092986295e+02 -4.7293851701347251e+01 -6.7396063636807412e+01  1.3659962037669288e+02 -4.3579723782410802e+01 -5.6237422343781965e+01  1.4089385601921418e+02 -5.5014261347602677e+01 -5.9626124585410516e+01  1.3613365227154765e+02 -5.5413088150589708e+01 -6.2248999028829466e+01  2.0008711558368469e+02 -5.9446298249265602e+01 -3.8011724054219776e+01  1.4789893397588247e+02 -6.1330148578154045e+01 -4.3668192633668220e+01  1.5767779862523392e+02 -5.7174392824866878e+01 -5.5957179178631726e+01  1.4719294263901983e+02 -6.2807040436339392e+01 -4.0714394213202304e+01  1.9935455617243926e+02 -5.9783395462026114e+01 -3.8696101475306747e+01  1.9970887320227834e+02 -6.1867834457248499e+01 -4.4347178340881371e+01  1.5897955417104620e+02 -5.7181086471846129e+01 -5.3965021927983244e+01  1.1431468287326199e+02 -6.7929414758024478e+01 -5.0353522254790036e+01  1.2475219759240983e+02 -6.0233593982129335e+01 -5.8512426446927350e+01  1.7042684130902282e+02 1.0758178794359509e+02 -5.5775521681377157e+01  1.1251072958900470e+02 4.6368569046779250e+01 -4.8626684842507402e+01  1.1479772599332480e+02 7.3200592624457073e+01 -3.9865578732071391e+01  1.2870285630549873e+02 2.1973959826608787e+01 -7.9912832123664458e+01  1.8863479051023833e+02 4.0247261748007922e+01 -5.8082580027097400e+01  1.7257980619190900e+02 -1.9320102013116809e+01 -8.3218098308772440e+01  1.0597752892671129e+02 -4.1182044989807371e+00 -8.3629811492300774e+01  7.5430444829119224e+01 2.2038723161211426e+01 -8.5981120895749612e+01  1.1003711973343148e+02 5.5148828234815362e+01 -5.2078713059770948e+01  1.1083449219827602e+02 6.2623064075546644e+01 -3.0084775250258254e+01  1.0167479647205303e+02 9.8555202095656680e-01 3.7273104195685818e+00  7.9259871180463378e+01 2.2111111605883291e+01 2.1827921070565200e+01  8.7935642024870447e+01 7.2318618920690314e+00 1.5218737413760982e+01  8.4630185759782606e+01 5.9183236591763659e+00 2.1670746702801310e+01  9.3537183221453176e+01 1.7407894151585857e+01 8.7642293498093338e+00  7.3096239698328986e+01 2.1315173882150487e+00 4.3239696757397809e+01  7.4556485616082497e+01 1.0671119170295718e+01 3.6022303506290903e+01  7.7103106494236201e+01 1.6989472152360619e+01 3.0442441628615491e+01  8.3646303387041087e+01 3.3794966101210740e+01 1.5759664153565595e+01  7.5946381662654886e+01 1.7022414127290009e+01 2.8032275542422763e+01  1.1981329719609806e+02 -6.1108698714856359e+01 -6.3998987706595145e+01  1.1859222453759388e+02 -5.8570263167600338e+01 -7.0814873853787162e+01  1.0606460166430685e+02 -6.6278334231490732e+01 -5.9988531061706702e+01  1.1576160692362021e+02 2.5950839709438760e+01 -1.7612012795421208e+01  1.0868000683641664e+02 1.7399405696408717e+01 -6.6579582416451775e+00  1.0335743364522534e+02 3.5156173648833132e+01 -8.1439818724064708e+00  1.0393327842577949e+02 1.6105603195191360e+01 -4.5961192673060527e+00  1.0668641722051970e+02 3.8886097922835070e+01 -2.2370726015978118e+01  1.1994734110577899e+02 4.3132217694024540e+01 -2.5977323885996693e+01  1.3005466161204998e+02 2.1655640591756775e+01 -2.1945358178487766e+01  5.9316405077677402e+01 1.6902273819070379e+02 1.4647571271682105e+01  6.2472355129290150e+01 1.2918958039292326e+02 -3.1014815002476823e+01  5.7071924589265500e+01 1.3098529216836934e+02 -2.9044860446244172e+01  6.5975697503483417e+01 1.3976546983136657e+02 -1.2525366664262174e+01  5.2225860712097479e+01 1.7512516088513499e+02 -2.8710812639318184e+00  4.2627619169034524e+01 1.3942162341014645e+02 -3.0099511819635865e+01  2.7400612129138214e+01 1.5934249359569168e+02 -2.8823387384559002e+01  5.2674051749697263e+01 1.3648940606693577e+02 -2.2854910344042590e+01  5.0202265593532971e+01 1.4914969484861422e+02 -3.0033651957413014e+01  8.2732213396923100e+01 -3.7005851865418485e+01 3.5109643711300869e+01  7.4144658715993046e+01 -1.6441684492030134e+01 5.6277153117461474e+01  8.1851239083886469e+01 -2.3308802196625816e+01 3.9220029030596024e+01  7.7766275246856395e+01 -1.9467806282271663e+01 4.4505310180603196e+01  7.8743134857122214e+01 -3.1523422903797094e+01 5.3279543376152056e+01  7.5520076208650067e+01 -2.2656837757757331e+00 4.2057268389660130e+01  7.0374693003654656e+01 -9.3901490146623541e+00 5.8578579546138407e+01  7.2561421623000868e+01 -2.5388108900303884e+01 7.2581196518108300e+01  1.6306016018428136e+02 9.0891257926597874e+01 8.5540751735718974e+00  1.0851704707810599e+02 1.6015294844544414e+01 -4.2958727427062534e+01  1.0811611096095227e+02 6.4677818791662048e+01 -2.3633230112770224e+01  1.8917966178229548e+02 4.5715493313428979e+01 -3.6464372661494153e+01  1.1258106491977532e+02 3.6873224309108188e+01 -1.8391721056078818e+01  7.0269630199370013e+01 1.0683243597343224e+02 -9.0232931019312957e+01  1.2780345823644485e+02 8.2720796136657995e+01 -8.3222736226187422e+01  1.3053754356580239e+02 6.8650642015057485e+01 -6.9601959853607312e+01  1.0410544694818392e+02 9.0934412383043664e+01 -6.2143043486272234e+01  1.0677884293359676e+02 7.7843755662876816e+01 -1.1284498054073448e+02  1.8350205948605864e+02 5.4118477357011940e+01 -1.0217819921548868e+02  1.1932069020958068e+02 8.1565717788045021e+01 -4.9141670710124018e+01  5.3761054293583122e+01 1.7722621331493453e+01 -3.8790458436897306e+00  6.3356038973883479e+01 -1.6262078425769278e+01 1.1284432120574651e+01  8.3840776526602653e+01 -1.0614759190855838e+00 2.8714511583785445e+00  6.6307662772296212e+01 1.7438858247259834e+01 1.7503803118621608e+01  6.8785281537495479e+01 2.9728930780036076e+00 3.0678993886321500e+01  8.6348045450500450e+01 -2.8854938229694707e+01 6.9175665204935060e+00  6.6901223873876759e+01 -2.1339857892840858e+01 2.1228391228012693e+01  8.2890843986619444e+01 -4.0611309708188887e+00 1.3482472164847094e+01  1.0318648907794949e+02 -5.8374869640775549e+00 -1.8594232238791124e+00  6.6978095382413898e+01 -4.8590209194999211e+01 1.2601378726507400e+01  1.4116207869170589e+02 -4.8765002984268449e+01