<?xml version="1.0"?>
<VTKFile type="UnstructuredGrid"  version="0.1"  >
<UnstructuredGrid>
<Piece  NumberOfPoints="6649" NumberOfCells="29917">
<Points>
<DataArray  type="Float64"  NumberOfComponents="3"  format="ascii">36.38518823492192 32.31526005147992 22.49170785072072  37.1489839413108 31.37984215895746 21.97738560059116  36.81625455794936 31.23838619756273 22.53896188690123  36.77576003179165 31.96990806212931 22.82908090840765  37.10848941515309 32.11136402352404 22.26750462209759  37.16633182866138 31.6245560727787 23.16645396609459  39.89416122436523 33.16096115112305 24.37437057495117  39.19966933994674 33.16572800776997 24.08839011116068  39.51623204959128 33.38638198319411 24.48442377993317  39.31146499940971 33.35996611128391 24.17189830084133  38.7287687744542 33.55897107144477 23.96942602673149  38.93353582463577 33.58538694335498 24.28195150582333  39.13830287481733 33.61180281526518 24.59447698491518  38.22693868477159 35.7704171324852 24.28886569630853  38.62787331461233 35.25488460006575 24.69864120903071  38.75448923118462 35.76128299524209 24.20059067323764  38.6153492350725 35.22647001291126 24.08147981106518  39.0037597853734 34.68252289333732 23.87409392582183  39.15542386102537 35.24575046282264 24.61036618595982  39.01628386491324 34.71093748049181 24.49125532378736  39.14289978148553 35.21733587566816 23.99320478799429  39.28203977759766 35.75214885799898 24.11231565016675  39.02880794445308 34.7393520676463 25.10841672175289  38.07558822631836 33.60472869873047 25.6757698059082  38.59970103777535 33.49316274047374 25.21048020201816  38.62386847757955 33.87874758087474 25.15607628695649  38.53728259049691 33.64775238891473 25.59159228743862  38.13800667359679 33.45013905028948 25.29465772048775  38.16217411340099 33.83572389069048 25.24025380542608  38.24876000048361 34.06671908265049 24.80473780494396  38.22459256067943 33.68113424224949 24.85914172000563  38.20042512087523 33.29554940184849 24.9135456350673  38.99897695467548 33.690776079099 25.50741476896903  39.28553009033203 36.35174179077148 22.93254089355469  38.86113595948124 36.30019306792927 23.6341189200452  39.00572754351987 36.01650033514663 23.09388956772659  39.28378493396485 36.05194532438523 23.52242827186072  39.14093850629341 36.63543452355412 23.47277024587329  38.99634692225478 36.91912725633676 24.01299959819189  39.13919334992622 36.33563805716787 24.06265762417932  38.7259249967077 35.68125887952178 23.2552382418985  38.60521853410043 33.27533303161493 25.57632777633022  38.51785469055176 33.14595985412598 25.9155101776123  38.44991874694824 33.51837921142578 25.9307746887207  38.14352416992188 33.23230934143066 25.6605052947998  38.21146011352539 32.85988998413086 25.64524078369141  38.82424926757812 33.43202972412109 26.1857795715332  38.9116131111268 33.56140290161004 25.84659717025112  34.6710090637207 37.472900390625 23.63306999206543  35.52739229924181 36.90857663046963 23.12589056978706  35.54466045738005 37.17381306634513 23.84863281825551  35.41812504173063 37.44534893975822 23.54379749873647  34.79754447937012 37.20136451721191 23.93790531158447  34.92407989501953 36.92982864379883 24.24274063110352  36.16524101974056 37.41779748889144 23.45452500540751  36.82178115844727 35.74330902099609 26.49729919433594  37.57878156221253 35.53630661360695 25.88703825899316  37.5909580758844 35.84205269209816 26.34062865205956  37.19012303865296 35.9665663181968 26.0534630102749  37.21043968200684 35.31304931640625 26.3308744430542  37.22261619567871 35.61879539489746 26.78446483612061  37.62345123291016 35.49428176879883 27.07163047790527  37.61127471923828 35.18853569030762 26.61804008483887  37.59909820556641 34.88278961181641 26.16444969177246  37.55846491885865 36.18982361539751 25.60962682621386  35.3419303894043 36.41820907592773 24.82584953308105  35.72162550859251 35.97410186594466 24.7991904733894  35.55987548828125 35.72105026245117 25.08242511749268  35.59513473510742 36.18778991699219 25.10054492950439  35.75688475541868 36.44084152048568 24.81731028540112  35.30667114257812 35.95146942138672 24.80772972106934  35.27141189575195 35.4847297668457 24.78960990905762  35.84833908081055 35.95737075805664 25.37524032592773  36.01008910112181 36.21042236155013 25.09200568182446  36.17183912143307 36.46347396504363 24.80877103772118  37.68324050200643 34.8915524876623 25.69488717920341  37.54164886474609 34.44173049926758 25.81752014160156  37.18538475036621 34.64476013183594 25.75633525848389  37.76738279844646 34.90031536350819 25.22532466663437  38.03804110151007 35.51425008463018 26.71674599258808  37.78228033670183 35.20494839891709 26.79452246121186  38.01044082641602 35.22684669494629 27.02999019622803  38.39743041992188 34.95941162109375 26.98834991455078  38.42503069501593 35.24681501077765 26.67510571091083  38.16926993020769 34.93751332506455 26.75288217953461  37.94110944049351 34.91561502903535 26.51741444451844  38.19687020530175 35.22491671474845 26.43963797589466  38.45263097010999 35.53421840046154 26.36186150727089  38.07235106719197 34.82642797594355 25.79509736902275  38.19800173422053 35.13036147040014 25.82726976048317  37.98820877075195 34.81766510009766 26.2646598815918  38.3773193359375 34.75254058837891 26.36487007141113  38.58711229940607 35.06523695868139 25.92747995030251  38.79690526287464 35.37793332898387 25.49008982919388  38.28214403066055 35.13912434624604 25.35770724791413  36.71844863891602 35.12297058105469 25.8067798614502  37.24291571868123 35.01164297228144 25.51605226404228  37.15877342224121 35.00288009643555 25.98561477661133  37.64987144346588 34.36423944989578 24.86255391425568  37.86255295965668 34.91989436146601 24.60894152971208  37.21602764061829 34.61933775666211 24.75326911513726  37.95772312086691 34.93947335942384 23.99255839278979  37.7450416046761 34.3838184478536 24.24617077733339  37.5323600884853 33.82816353628336 24.499783161877  37.13547134399414 32.79349136352539 24.7472095489502  36.92352852710103 32.97880094132637 24.15752043632139  37.51879337042227 32.78289058776088 24.08291399850069  36.96101570129395 32.40534973144531 24.42549991607666  36.78656005859375 32.01720809936523 24.10379028320312  36.74907288440083 32.59065930924629 23.83581080344785  37.34433772772208 32.3947489556808 23.76120436562716  36.71158571020791 33.16411051912734 23.56783132369258  39.89416122436523 35.0036506652832 26.17470932006836  39.46148458440916 34.87150136646476 25.64156302091062  39.89416122436523 34.50920486450195 25.98864936828613  39.89416122436523 34.98365592956543 25.77379512786865  39.89416122436523 34.96366119384766 25.37288093566895  39.46148458440916 34.37705556568351 25.4555030691284  39.46148458440916 34.85150663074698 25.24064882871092  39.89416122436523 34.48921012878418 25.58773517608643  39.89416122436523 34.0147590637207 25.80258941650391  37.99716074160902 35.3353662479967 24.75709518147145  38.51192197382311 35.57417523073454 24.88947776275121  38.39809537144977 34.81983371557725 25.16687069419363  38.91285660366385 35.05864269831508 25.29925327547338  39.89416122436523 34.12715911865234 24.84074020385742  39.46148458440916 34.43325559314933 24.97457846280516  39.44896050486932 34.40484100599483 24.35741706483963  39.89416122436523 34.4997444152832 24.71361541748047  39.89416122436523 34.87232971191406 24.58649063110352  39.46148458440916 34.80584088978019 24.8474536764282  39.44896050486932 34.77742630262569 24.23029227846267  37.549560546875 33.26752853393555 25.21367073059082  38.00972794129699 32.93025494079241 25.02523805038277  37.87499283387511 33.28153896789202 25.06360818282906  37.8805103302002 33.0637092590332 25.42945575714111  37.68429565429688 32.91624450683594 25.17530059814453  37.81903076171875 32.56496047973633 25.13693046569824  38.01524543762207 32.71242523193359 25.39108562469482  38.20594261720031 33.07771969298967 25.27939320937935  37.48419952392578 34.00067138671875 25.47059059143066  37.8423123224005 33.64811039428362 25.19206811324898  37.8664797622047 34.03369523468462 25.13766419818731  37.77989387512207 33.80270004272461 25.57318019866943  38.00807139946504 34.48351722307935 25.01503123578916  37.89056004448446 33.94744130946692 24.65226048341048  38.10324156067526 34.50309622103717 24.39864809886687  38.44458771776581 32.6612347114274 25.08913561664097  38.24837304186249 32.51376995923013 24.83498045764438  38.43907022144073 32.87906442028621 24.72328804232891  38.67771532200624 32.46257943872394 24.53303044959052  37.50827980620554 33.91441746150106 24.98518687665383  39.89416122436523 34.13293838500977 23.70894050598145  39.35652677187067 34.30574408242625 23.02174651982829  39.35652677187067 33.99937239358348 23.22996223332927  39.89416122436523 34.21356391906738 23.17262554168701  39.89416122436523 34.43931007385254 23.50072479248047  39.89416122436523 34.74568176269531 23.29250907897949  39.89416122436523 34.51993560791016 22.96440982818604  39.89416122436523 34.294189453125 22.63631057739258  39.35652677187067 34.0799979276411 22.69364726903483  39.08355540963521 34.17557744145574 24.85144685333403  39.51623204959128 33.86948096695876 24.7176085943863  39.07103133009537 34.14716285430125 24.23428545536851  39.28593827318574 32.81177029492349 24.45370051227085  39.89416122436523 32.84211540222168 24.10940551757812  39.89416122436523 32.67720031738281 24.47806549072266  39.89416122436523 32.19343948364258 24.58176040649414  39.89416122436523 32.35835456848145 24.21310043334961  39.89416122436523 32.52326965332031 23.84444046020508  36.36331939697266 30.51906967163086 23.11576080322266  36.54145622253418 29.88214492797852 23.03347492218018  36.80613346321738 30.14241036891642 22.77190929869742  36.61468505859375 30.20656967163086 23.22564506530762  36.29009056091309 30.19464492797852 22.92359066009521  36.21686172485352 29.87022018432617 22.73142051696777  36.86605072021484 29.89406967163086 23.33552932739258  38.98360061645508 34.51623153686523 26.4815502166748  38.99128878556527 34.10350380798211 25.99448249
[...]
<PointData  Scalars="c_HbCO2"> 
<DataArray  type="Float64"  Name="c_HbCO2"  format="ascii">-9.6902502368503959e-61  -1.3342417753859890e-60  -5.1961021853094947e-62  -7.2332054083069553e-62  -5.0757794371937383e-61  -3.2064949955605305e-62  -6.3655685414127467e-66  7.1997649387454598e-65  -2.5634363901427088e-65  2.0675350088404621e-64  2.2503249790135118e-63  -6.5443553285908448e-66  -3.1309648787046303e-65  -2.1645279000537882e-63  2.3834251650622917e-65  -2.8426800749175483e-64  -8.3333417440576871e-65  -1.9244026003029799e-64  3.4131090853892211e-65  1.5929984554023379e-65  5.9560933274325259e-65  3.1318497126308145e-65  -7.2898015609825950e-66  -2.3944030032431790e-66  -9.8762679638643925e-66  -2.3461898660950679e-65  1.9520687155576389e-67  -4.8526401015781461e-65  -3.5585662396767252e-65  -1.0323920273131898e-64  1.6916637315653400e-64  2.7037715125327373e-64  2.9099633839629759e-66  1.6969488081113868e-64  -3.2614208452468083e-64  1.1480838397010607e-64  1.1862520278547738e-64  8.3938679375720076e-65  -2.1535269901634560e-64  3.4805046472364313e-65  -1.0900616374431570e-63  2.6094571835878850e-66  3.3849719541016509e-66  1.2774665062142765e-67  -1.1465055979674193e-65  -2.4084841794868100e-65  8.8935214853120947e-67  6.8210729893459962e-68  -3.4556643096220403e-62  -3.1931968525994265e-61  3.9929258282921481e-62  3.7198386380813584e-62  2.0719296268866014e-61  -1.0576429857631767e-61  -5.0398501454803207e-62  3.8575000499338825e-65  8.7113261919298962e-65  1.8471895458750850e-65  -4.4530958423506102e-65  1.0441321094856303e-64  2.4413607919738189e-65  4.7346241434772680e-66  1.2066537487374977e-65  8.3100534955772941e-65  -5.0649557316419753e-64  3.1077117628248107e-62  9.8644006134106793e-63  -1.9653949399069892e-62  1.1446429306058417e-63  1.9087709498828991e-62  1.4978252364931214e-62  9.5524616323322032e-62  -1.8061962316595367e-63  -1.0972873962730170e-62  1.5953868043712500e-62  4.7693487832269954e-65  8.5143128929412156e-65  -3.2026835701915003e-65  -5.6639101790432355e-65  3.2807207086175517e-66  -6.3216845070761474e-67  -5.3099572329904445e-67  -2.4162447687146154e-67  -1.4119220730754994e-66  -2.6016697007149143e-67  -1.3109331023524241e-66  -1.8287208122564951e-66  -7.2620069682473135e-67  1.0028830715979146e-65  3.3125405382179097e-65  1.4686573017682629e-65  -1.6195181177861767e-66  -3.8129258411982590e-66  4.8360526887816595e-65  1.4086873779206185e-66  2.9282447215535801e-64  -2.6062726068768910e-64  -9.6115956821514202e-65  4.1644606298617975e-64  3.3304862787984048e-64  -8.5759948237106752e-64  9.9383766827039554e-64  3.9640203213676633e-64  1.2207800597877593e-62  3.5220109420840687e-63  4.6190534440800641e-63  3.9074452157375392e-63  2.1030260125492643e-63  1.5946538583231772e-63  -1.9298199173391235e-62  6.2752395476762549e-63  9.6405154634946879e-62  -2.7530397802227892e-67  -1.2007776513332780e-66  -9.3347044668819495e-67  -1.1296742174543225e-66  -1.0705722292068616e-66  9.6156419667755679e-67  -3.7487192979692064e-66  6.1861028331309160e-67  1.2713524887372683e-66  -9.8167411486002260e-64  -1.1202809840019294e-64  1.9240774329303554e-65  2.4487250686511225e-65  -1.6333510487591807e-66  3.2693245474139089e-66  -1.5699745470004161e-65  2.6015320346502936e-66  3.3121999023298857e-66  5.5671151298283004e-66  1.1421462960546564e-65  6.3683785554763550e-64  -1.4984474213894979e-64  9.3457223120704643e-65  -9.6726248324046166e-65  -1.5900444968183388e-64  -8.4685881418112225e-65  -1.0154782098748817e-64  -3.6002171524402057e-65  1.9376846897906087e-64  -1.4075591502663186e-64  1.9870400319766092e-64  -1.7401494883187455e-65  8.1900710771329525e-65  2.2077329035163164e-63  1.3312308599845129e-64  -6.4036078477584851e-65  -9.2097745538870034e-65  4.8777826844216590e-65  1.9413561396868961e-64  5.4739347266966578e-64  -1.4258100038505554e-65  -6.0107623478403080e-64  -4.7284150378341287e-64  -4.1359445785215997e-65  -6.6799831552075238e-65  2.6029791981511727e-65  -2.0870403720689158e-65  1.2013058481214960e-64  -2.5974433125019531e-64  -3.8040733640199849e-65  -5.7071810732414397e-66  2.1785699905159869e-66  -1.0811916162598449e-66  -4.0329032867492738e-65  -7.0493056111771173e-66  -7.5129340750651826e-66  -8.1962394145204025e-66  -3.9593792165755960e-66  -4.1477577859338266e-62  -1.0650925697085643e-62  3.8891890977832293e-62  1.4641862844424152e-62  2.9585772971419938e-63  1.2452079294622920e-61  -4.5998515515060374e-63  5.7556834072270905e-67  2.6506552331784358e-67  4.8496869795813385e-68  -3.9769937501074448e-67  5.5189112921838449e-67  -2.7043314565075015e-65  -6.3365270682490391e-65  -2.2382317928004150e-64  -3.0717080786961453e-65  -3.5927597994261776e-65  -8.3692262429600575e-64  -9.9485762967087555e-64  -7.2864912669678668e-63  -2.8572072421260640e-64  -1.5972727628748166e-64  3.5126922810082310e-65  -1.3902171189410838e-66  -3.8899696458194244e-63  -1.8632591440031603e-62  -3.5851431456749564e-62  -3.7874093454051764e-62  -6.6429041524340800e-62  -6.3908525660954831e-63  -1.0688821924060129e-61  -1.9033641690314356e-62  1.0822931568052505e-64  -4.9340830513409012e-65  -4.7337274153206552e-64  -1.5408895395631961e-66  -5.1702025239945460e-66  -4.3652794301334545e-67  -2.2782174010107401e-66  1.6684687646368906e-66  2.9249560075573235e-67  -2.5035999254778762e-67  -1.2863201299071864e-66  -3.9583326906458721e-66  -5.1461419366545600e-64  -1.2579971064776373e-64  1.1767171870597480e-64  1.9355187687238171e-64  -2.9497926754020404e-63  -5.3524791266250476e-64  -3.3437807863541108e-64  -1.6637015834232856e-63  -6.8973021342618838e-63  1.4304296492577529e-62  1.6884328819377229e-62  -3.1493549125928389e-62  5.9840574888762387e-62  1.4399756326226163e-62  8.8953526370911657e-62  -4.3557961515362203e-61  2.0337723632974780e-64  -3.8018410250895537e-65  -1.7998235175968182e-65  1.4286708357839769e-66  9.1705389045572264e-66  2.2935416556257580e-66  2.3145833847482108e-67  2.4968028313117452e-66  2.0535834912561040e-64  5.4689294608199235e-63  1.7788258021842609e-63  3.4423865660259979e-63  1.4434988556697565e-63  6.5491401803486387e-64  -3.4871550824484035e-64  -1.2568261928878843e-64  7.6832457249233401e-65  -2.9796282865968285e-61  -3.0748765687934082e-62  7.1867278555645238e-62  3.0129082924210968e-61  2.7743547887730161e-62  -4.7374191134488973e-65  -4.6448479474809042e-65  1.7197176495165803e-66  -1.5215397219309191e-66  1.4724913271919147e-65  9.6013838902895815e-66  2.6113112344231537e-65  -1.5279779140167337e-65  -1.1432597358935811e-65  1.9640739245528225e-66  6.5008010985290283e-62  -3.9708334494870332e-61  -4.8529325823080198e-65  -1.0230066783452177e-62  6.7205720589306713e-63  8.4688326255620844e-64  9.7711890565412946e-64  1.0391951011468960e-66  -9.8460693505794552e-65  -2.8660168719971625e-65  1.4488459783716825e-65  7.0892140872448072e-62  3.3634075099597414e-61  -5.1782010333003979e-62  2.0511780278377501e-61  8.9090946555945042e-64  7.9320798864217289e-63  5.5441580926592672e-63  4.7982683250269026e-63  7.4269368942499450e-63  -2.6212333531921862e-64  6.7839646909877086e-64  -9.0486448377953540e-64  -1.7010604201591721e-63  1.8923368253020078e-63  3.2904286361351011e-63  1.0076492293154922e-63  -1.4962497431419582e-60  -1.2111541509126025e-62  -5.7991733035063252e-61  -4.0869094223069844e-60  -3.9036780305700061e-61  2.2348309556213349e-61  5.4476186520553328e-60  3.5099469977555901e-66  2.7414593326040919e-65  3.1508568562217849e-65  1.1551729831539288e-65  -2.2931069950044194e-66  1.2462242444502152e-62  1.5615629361869583e-62  6.0413222154455387e-62  -6.4529730818488004e-62  1.9084080837430656e-62  1.7955029320330729e-62  2.2026995877256853e-62  1.4424887850861435e-62  1.1075387446348720e-62  1.9219904767630335e-62  3.2559340809914164e-64  8.4248211148013558e-65  -4.3528359133198723e-65  2.5036769346870112e-65  3.2844873445783984e-65  2.3143412891587113e-65  3.2161152116228997e-65  3.4458098118666381e-65  1.1977525956923234e-65  3.4748666536498965e-65  -2.8781533316353532e-64  -1.6299295946801553e-63  1.6956373738309547e-64  -9.8879875650410226e-64  1.0292011497358559e-63  -8.6581611495151441e-67  2.8236851303217044e-65  6.1927383724582786e-66  2.5729007291771349e-65  7.6483366847496544e-65  2.0661514946360194e-63  1.7780398977804638e-63  1.1818510927006822e-63  1.2533117826648803e-63  2.4518599516667937e-62  -1.3062190207378417e-63  6.5402525013931773e-63  1.8865673595498237e-65  1.4033043841032337e-65  2.1569809353362311e-65  3.8720508178441090e-65  -9.5684239483383144e-67  -9.3260893882345049e-62  9.7389804027328622e-62  2.7085183537382211e-62  9.3754626581155859e-63  -5.4978136465621221e-62  -1.8903075281883523e-64  1.0912874996196084e-63  1.5428926377311074e-64  2.0091878364398235e-62  -5.9172006930335387e-66  3.7518011720932409e-66  2.8303157165067796e-66  4.4092060432555472e-66  2.6599646688716240e-65  1.8101480571239578e-65  2.3985973404514217e-63  3.7320073573838308e-63  9.4832598789139092e-63  1.5871766247269702e-65  1.1378002882748119e-65  8.0167610313922372e-67  -3.1198105198220465e-69  -2.3007104367196567e-67  1.2272037845044159e-67  -1.1134814920288339e-66  -1.1330461133188590e-61  -5.6207588221030459e-61  -1.4329989236968749e-61  5.1058901900634718e-63  -2.7688827977224581e-61  -1.7567253782922363e-61  2.4523592670588094e-63  1.2925487134743033e-65  -1.1437976902253997e-64  -2.9447574679758991e-60  -4.7426385261914205e-61  -1.3944991145976328e-62  -1.4970558198235557e-61  1.1114790059668544e-62  -2.6357697216262757e-64  -3.6629710494601772e-64  -9.5236638959644909e-65  -1.6004845963648457e-64  1.6475783374692875e-65  1.7819358136709429e-65  -2.8233553204242848e-63  -2.3017886609647861e-63  2.9308369794324790e-66  6.6009326205016307e-67  1.4181660752272746e-66  3.9079969815358517e-67  2.6957082319072231e-66  -2.6784854058511612e-66  -6.8572071408923978e-64  1.9332149145929491e-65  3.7524138304833442e-63  2.4272372882311251e-63  1.7306386326848461e-64  1.4963151663734671e-65  1.0118704166062193e-64  5.3133668871807581e-64  -1.3978818491206766e-64  -2.7386348374642144e-62  7.0091343972067772e-62  8.4461170355801036e-66  4.9711310891904653e-66  1.5052043937726283e-65  1.7418389545108644e-66  -6.0804620264890253e-64  -5.3405512081582735e-65  -7.4244186693946046e-65  9.3704624190307868e-69  1.7096787981875020e-67  8.7375533155644725e-62  -1.5121034530871323e-63  -3.2548848514042067e-63  -1.0718464953291308e-64  1.7839876393130876e-62  -2.7517758561064032e-63  -7.6335349030506494e-63  1.3124177016925150e-63  -1.2397695522853113e-66  -1.6688501176305280e-64  -4.9203669465070198e-65  -6.4429574579434825e-65  -5.4736504997234738e-67  -4.5856214596335054e-66  -2.4388543734340952e-63  8.4234884042374344e-62  -2.1636577016443048e-61  3.6192097232090711e-66  1.7804425858642438e-66  1.8547719115802874e-64  8.3829554480582224e-66  1.0649188004635213e-59  5.0884906604417858e-61  -3.4080016639370300e-60  2.7369572244824384e-59  5.8997213493366932e-62  9.1805347364028258e-63  -4.0479552736151022e-64  -2.9255063963524747e-64  -9.9487735821026712e-64  -1.2164236514285952e-63  -7.1901492566170748e-64  -5.8568536942482506e-66  2.3540207005861858e-63  -2.0443480034975429e-63  3.0313005660345212e-63  -1.2972517638609371e-63  -1.7978417030808702e-62  -1.7353957514972182e-65  4.4665274556013900e-63  1.1023740451928278e-62  -9.3145408197396047e-64  7.1392480688970419e-66  -2.4864714772155287e-66  6.8495620079129469e-67  -1.1760873783997240e-66  6.2259421052302054e-67  -2.0854456662827021e-63  -1.4465207232474601e-66  3.1560196765762052e-62  -3.3682488190429177e-66  -3.2625171569525611e-61  3.4077727285456448e-65  5.2048265169995655e-66  -1.0769431506717040e-60  -1.6987142009874081e-61  -1.8156375415519653e-61  -2.8328100966635701e-65  -8.9960890344323742e-64  -3.4321930008948273e-66  -1.8300892642070606e-66  1.3053140648330382e-66  6.7280850848297629e-66  -2.8788700272928270e-64  2.7512586225588194e-65  1.3108582814917100e-65  6.7224844593542383e-65  5.3900474317585828e-62  -4.5594779289826494e-64  -6.8736852519158974e-64  2.0118333662247107e-63  1.3494856369668909e-64  2.6971932945961680e-61  -5.7849170059672481e-66  -2.0763902157079746e-66  -1.3803247049017303e-62  1.0597923581329105e-65  -2.7380945851451255e-60  1.9941014797559928e-59  2.6971717119014164e-60  1.1865018814626244e-59  -2.1931850793499975e-64  -4.5047829508682960e-63  9.9746311161721410e-62  3.7611805380966982e-60  -1.9007888769980772e-60  -7.7115675371367615e-61  2.7539130134248991e-64  -4.4855514121850204e-63  -2.2489309321315191e-64  9.5982333770800769e-67  1.9886770370964373e-66  9.1608390949079853e-67  -8.9235864803472587e-65  6.5669069688215439e-64  3.0837146044563295e-61  -1.1737514194384046e-61  2.1734950271396713e-62  -3.3870074079366686e-63  -2.4829903924668964e-60  7.7078207620037728e-63  -2.6237115794296122e-64  -6.1161916672968647e-64  -1.4260866244951948e-63  4.4736798839207504e-64  -3.3330608077505958e-63  -3.2386967103253161e-64  -1.1745690144069766e-63  -1.0051919774951791e-64  9.4388627539141864e-64  9.6555085834078200e-64  1.2808267436564871e-64  1.5566984157455230e-63  6.8485236490661485e-64  -4.4096717823303443e-64  2.2474655985022235e-59  -6.2716449125560033e-60  -4.5635083473183719e-60  -5.9932814120748492e-61  -9.9599105726214656e-60  1.1445879636151775e-60  2.9488512011938990e-60  -8.7697118312457819e-61  -1.8817792188719254e-60  -7.0163320411163301e-60  -3.6653644599799093e-66  -1.1557069125744460e-66  6.2011848981781163e-66  1.7654222562707405e-66  4.4671928536197043e-67  -1.5557147282660471e-66  -2.8711362111518422e-66  -1.5371915789702324e-66  -1.9238024261660515e-66  -3.6463425742941844e-65  -5.0706604670746243e-58  1.0815339340891186e-59  6.3244477211358514e-60  -7.6081091383552918e-58  -2.2984141427139710e-58  3.2346991473682134e-59  -7.4029392660742755e-60  1.2171217097370146e-59  1.2030585296253873e-59  1.3819468736267260e-59  -1.1224536084732002e-69  -1.4573957979208429e-68  -9.5484541601542855e-69  1.5338417260644566e-69  8.0488691879844444e-69  2.9995338831846894e-69  -1.8095046069545345e-68  -2.5874870455061952e-68  -3.1906575362839715e-68  6.1475025492176914e-71  -2.1337772826132807e-63  8.9289488640532101e-63  1.8977681571674645e-63  1.2798573124478217e-63  -8.2219125987897911e-62  3.3673122089783528e-63  8.2523804774140288e-63  -7.7261421362518943e-64  2.5743999904530314e-63  6.2864042506389714e-63  7.4524389466912811e-65  -7.0928185053480301e-65  5.7230123097522643e-65  7.8082933423918691e-65  4.8019101657156898e-65  -2.0578760015106948e-64  4.2726291653557955e-65  9.0076756317442110e-65  -1.5151123205642322e-64  5.3756106958533352e-65  -5.8149739085936475e-67  1.5973254335693562e-68  -1.6101591952014153e-69  -7.7701452948326237e-67  -8.4108775009726814e-67  6.4845626143059019e-68  -9.3494628305976461e-67  8.4633366435496704e-67  -8.1422056556568038e-67  1.1581067815471092e-65  -1.1951552373494779e-59  1.9608977351253944e-60  -5.8538873584148068e-61  -4.2976725743851378e-60  -6.6102656738220555e-61  -4.9454682267756014e-60  -1.0494416764583534e-60  -2.0445814749790287e-60  4.6523908266686717e-62  1.5103473732053360e-60  2.1950321160666252e-65  8.3590618982872254e-66  4.7982680006830896e-65  -1.7584021153396010e-67  -1.9976560301000318e-66  4.9015892025284183e-65  2.2035334043639418e-65  -3.7212792413350423e-64  7.5942227285573907e-65  6.0189235939316488e-65  -3.2350489704494383e-65  -1.5228051175282673e-65  -6.6429392944276168e-66  2.8352574596005706e-66  -1.5552936346042349e-65  -6.1100996022891847e-65  -1.4476657602079710e-65  -8.1829590183709500e-66  -3.8727503713988649e-67  -4.4803045167924909e-66  7.9679249512403933e-61  3.0604899493062979e-61  1.0024897997049689e-61  1.1518641640536823e-61  4.5067326453132403e-62  -8.5652983576655157e-63  3.9469014759634819e-62  -1.1985667869412416e-62  -1.7724935990300256e-62  -1.1961577229659241e-62  -3.2607195465591875e-59  2.4194769682726735e-59  -1.0552574013061042e-59  -1.9150235848416628e-59  -4.2877103395971518e-60  -2.3478744133180963e-60  -2.4119872363961921e-60  1.4754483332991159e-60  2.9455062055045421e-60  1.3423770393009192e-59  -9.2494253128605861e-59  -1.1755368569934059e-58  1.3773325486230408e-58  -2.1327694097122330e-58  -1.8103855025498368e-58  -1.0057103361276996e-57  -5.2550828290048904e-58  5.2476224455354923e-59  3.6073326993835083e-59  3.0718413174528022e-58  1.8691606901582657e-65  1.7745306759808826e-66  4.3416573260129048e-65  2.8807943087810518e-65  3.1259087055216096e-65  -1.8904309480095038e-67  -1.3176715506551683e-65  4.2657443775166068e-67  -5.2901478976676927e-67  -1.1871615535797516e-65  1.5786299400634507e-71  5.8705881545353773e-72  1.6711867408842281e-71  9.9477695108828877e-72  2.0846691192657434e-71  -2.5025384598143204e-71  -7.4190789986176357e-71  -2.8674407888096652e-71  -5.0706465278067196e-72  -4.3773766675891675e-71  -9.3132222889178885e-64  -1.3733850192650609e-62  -7.8849860147872906e-64  -3.7013239645969073e-63  -4.8767286378803386e-63  4.3252962365622570e-64  4.8626781759186568e-65  -2.7470436928484428e-64  -5.0839276077742724e-63  -7.8714985417502673e-63  6.6860054800210719e-68  2.2625416200711017e-68  8.8835465770476072e-68  1.9381497950216599e-68  -1.3449895675495131e-67  3.8600187289090145e-69  7.7138255523138866e-68  -1.2433093875995295e-67  -2.8996819184960245e-67  3.0436745248222356e-68  9.7060137295092029e-62  1.0238566949708451e-62  7.3124292822454175e-62  2.3771058257010795e-61  5.0696358623844312e-62  6.3503944451407743e-62  1.3571171735618833e-61  1.2264682526146347e-60  1.8418604248713476e-61  1.5471800318537402e-61  -1.2856273761713879e-62  9.0566863826960445e-62  2.1094920455003901e-62  2.4366582408756116e-61  1.1653893907378246e-61  5.0725738641840814e-62  -1.6693694875657383e-63  -1.2016778814000940e-63  2.5607861898672008e-62  -2.0748307677025381e-64  -7.2798515343071601e-65  -1.9127493586040925e-65  -2.6869882664311486e-64  -2.9857405394819491e-64  4.3652682332119974e-66  -5.8320290137062803e-64  -4.7843540754258512e-64  -3.4221881881933849e-66  4.0357655834301897e-65  -4.6182375960084137e-65  -4.3558874336900459e-64  -6.5390511656849310e-65  -2.3027702308025406e-65  -2.0916963197255185e-67  2.3219409208264801e-65  1.7763902309259266e-60  5.0909404766862138e-61  3.6229680474969776e-62  -1.1748960490471732e-62  4.5225205593463127e-62  -2.1222126538553452e-61  -2.0496182362182539e-61  2.6480064707276106e-62  -1.0551227793076055e-61  2.1456393763476058e-61  2.9014037891979567e-60  5.6830108053636701e-60  8.8635268825083213e-61  9.1597763131059254e-60  5.0033061550376064e-59  7.8236056906654391e-60  3.6860745062558162e-59  1.4658077642632457e-59  2.5223878684626065e-60  1.8876293412971571e-59  2.7817495456207142e-72  1.6112789432380328e-72  1.5173906594654859e-71  7.7549539339186727e-72  4.9625915017669751e-72  6.1040529933292721e-73  1.6208468168119936e-72  -3.2995591792670589e-73  1.4034638163934610e-71  -2.5327894100759890e-64  -8.6575123518147315e-64  -1.1312983277159466e-64  -6.7666317700867158e-64  -7.1828491847644512e-64  -1.1174277436510792e-64  9.2705889254530407e-64  -3.3871273878769450e-64  8.3679212538695356e-65  4.8068399352953862e-63  1.7381758135377957e-70  1.0509192262819804e-69  1.7536633756993977e-69  4.0715916885859851e-70  -2.9847823987032628e-71  3.5489005558810971e-70  1.4878637878991485e-69  7.3178730749228579e-71  7.5281690172468237e-70  7.3146107331026150e-70  -3.6313955014378991e-71  8.6526662579215377e-71  -7.7749172394412482e-71  -5.2023414588838772e-71  -8.8709249178306382e-71  1.7536714954305928e-70  9.7730565862672139e-71  -2.1114684945901724e-71  -9.3384786649683088e-72  4.9034183535992303e-71  1.1341064865195229e-59  -5.5671831104024711e-61  1.8601100085781851e-59  -1.6418341157629503e-59  -4.1693960777982812e-60  -1.8427816332374424e-60  -3.9693139018898450e-60  -2.2214571670039250e-60  5.8366604650116486e-60  1.7542775002230637e-59  6.2037620966424024e-63  7.1748809198562244e-63  1.2384197367495841e-62  1.5712881638022859e-62  -4.4091083375703952e-63  -2.0539132499916246e-70  -2.9087341024280820e-70  -1.9600954829587965e-70  -1.6174