<?xml version="1.0"?>
<VTKFile type="UnstructuredGrid"  version="0.1"  >
<UnstructuredGrid>
<Piece  NumberOfPoints="7181" NumberOfCells="32534">
<Points>
<DataArray  type="Float64"  NumberOfComponents="3"  format="ascii">19.85581970214844 5.767773151397705 28.88743019104004  19.59823659847211 4.96812193417289 28.80182150161853  19.59699440002441 5.449859619140625 29.10527992248535  19.40834192226361 5.287966895339272 28.49886205947986  19.14827442169189 5.451791048049927 29.02017021179199  19.33816909790039 5.131946086883545 29.32312965393066  20.30949974060059 4.953857898712158 29.12439918518066  20.16838697383832 4.332365441558144 28.72035196579089  19.88633207271527 4.630729842421792 28.87965658462634  20.0839019198222 4.879077840087197 28.70245626724353  20.11192989349365 4.705509901046753 29.30159950256348  20.3939847946167 4.407145500183105 29.14229488372803  19.91436004638672 4.457161903381348 29.47879981994629  20.19641494750977 4.1587975025177 29.31949520111084  20.47846984863281 3.860433101654053 29.16019058227539  19.85830409904382 4.804297781462235 28.2805133493064  19.82383441925049 5.042901992797852 29.22376441955566  19.62626457214355 4.794553995132446 29.40096473693848  4.814870834350586 0.9924589991569519 39.89208984375  5.492542436785959 1.020756339614732 39.05196601911857  5.297674825854562 1.284987842624528 39.56702644392326  4.984317702718479 1.17800701619395 39.13015121915846  5.009738445281982 0.7282274961471558 39.37702941894531  5.204606056213379 0.4639959931373596 38.86196899414062  5.179185313649875 0.9137755131841542 38.61509079435377  5.153764571086372 1.363555033230949 38.36821259456691  5.467121694222454 1.470535859661526 38.80508781933172  5.780478817358538 1.577516686092104 39.24196304409652  0.6156569719314575 4.887494087219238 39.16093826293945  1.074798035485914 4.462942883438306 39.25584008098238  0.6062989830970764 4.512141466140747 39.09210395812988  0.8951804637908936 4.529570579528809 39.52651405334473  1.17470395565033 4.171647071838379 39.89208984375  1.35432152734535 4.105019375747876 39.62141587138765  0.8858224749565125 4.154217958450317 39.45767974853516  0.5969409942626953 4.136788845062256 39.02326965332031  1.065440046651533 4.087590262359814 39.18700577617281  1.533939099040371 4.038391679657374 39.35074189902532  5.266490936279297 5.529362201690674 39.89208984375  5.024479304567714 5.432570295822957 39.5290955291869  4.76050035622916 5.819977230033426 39.5616183878163  5.358805810228724 5.526741343033651 39.5290955291869  4.932164430618286 5.43519115447998 39.89208984375  5.094826861890171 5.914148277244119 39.5616183878163  4.597837924957275 5.341020107269287 39.89208984375  4.923162787501044 6.298934352797565 39.2311469318826  5.187141735839598 5.911527418587095 39.19862407325321  5.451120684178152 5.524120484376627 39.16610121462381  4.305378207879661 5.483367377710485 38.1084029229099  4.815092855117319 6.331032633921111 38.66647189534849  4.233180865723277 5.870150527125116 38.59482717523184  4.614270497690352 5.891150865254025 38.66977492739625  4.887290197273703 5.94424948450648 38.18004764302655  5.469202186667746 6.405131591302475 38.25169236314319  5.196182487084395 6.35203297205002 38.7414196475129  4.542073155533968 6.277934014668656 39.15619917971819  4.160983523566893 6.256933676539746 39.08125142755379  3.175221463666996 4.741963959722858 37.17139672285581  2.240506231753082 4.739670301248156 37.25337055866267  2.59214923964987 5.220667061292197 36.77749862067184  2.508291135438681 5.229167894315196 37.56854749158204  5.813197135925293 6.338484764099121 36.69166946411133  6.380082368850708 5.874862670898438 36.56085014343262  6.073060911749039 5.970395115706854 37.01228847116223  5.929985046386719 5.967499494552612 36.50193405151367  6.263294458389282 6.245847940444946 36.75058555603027  6.713391780853271 6.153211116790771 36.80950164794922  6.189848822210465 5.599409846160345 36.82255305856457  6.523158234213028 5.877758292052679 37.07120456308117  6.046772956848145 5.596514225006104 36.31219863891602  6.332924687572786 5.602305467314587 37.33290747821313  3.566713094711304 9.602714538574219 37.24636077880859  3.968950986862183 9.18804931640625 37.12573432922363  3.943700437916987 9.139670265940143 37.50084058793084  3.609757542610168 9.240765571594238 37.07705497741699  3.925906538963318 9.54999828338623 37.29504013061523  4.285099983215332 9.497282028198242 37.34371948242188  3.986744885815852 8.777721298960163 37.33153478653924  4.302893882169001 9.086954010752155 37.54951993973748  3.652801990509033 8.878816604614258 36.90774917602539  4.32068778112267 8.67662599330607 37.75532039705309  4.488501529975099 5.929730364474251 37.56508689552586  4.340388146388178 6.292317517913744 38.06161016562456  4.375398084896695 7.101267658117002 38.01481740833921  5.070413519369142 6.390612471270247 37.6367316156425  4.523511468483616 6.738680504677509 37.51829413824051  4.922300135782221 6.753199624709739 38.1332548857412  4.671624852070536 6.376093351238017 37.02177086814181  2.934545480728976 6.361700064697249 38.22936802721052  3.782116727729746 6.642481429699022 37.51966169668695  3.276355754760387 6.808979732019369 37.56881185303558  3.654971782812835 6.731483861407126 38.12209271777486  3.996782056844247 7.178763528729245 37.46153654359993  3.618166028791799 7.25625939934149 36.90825567886065  1.226487994194031 3.035964012145996 39.89208984375  1.330838744047889 2.287755624821915 39.50551638241627  1.387011234167823 2.909094647935166 39.50551638241627  1.608649492263794 2.764706969261169 39.89208984375  1.170315504074097 2.414624989032745 39.89208984375  1.990810990333557 2.493449926376343 39.89208984375  1.55247700214386 2.143367946147919 39.89208984375  1.769172732237586 2.637837605050339 39.50551638241627  1.114143013954163 1.793285965919495 39.89208984375  1.547534474141615 2.782225283724335 39.11894292108254  2.142173051834106 4.695449829101562 39.89208984375  2.030755019881262 4.279208078154969 39.33069335972969  2.076366531713179 4.07311825460835 39.62141587138765  1.838056075437239 4.366920754379468 39.62141587138765  2.33487199627813 4.607737152877064 39.60136733209204  2.380483508110046 4.401647329330444 39.89208984375  2.618793964385986 4.107844829559326 39.89208984375  2.57318245255407 4.313934653105946 39.60136733209204  2.527570940722153 4.520024476652566 39.31064482043407  2.953919887542725 9.063986778259277 37.193359375  3.124121562960319 8.339151636707873 37.35590545302018  3.507700101854972 8.596846357929797 37.42520515089616  3.158259050371818 8.689431444752307 37.56801025038347  3.26922345161438 8.621121883392334 36.83844947814941  2.919782400131226 8.713706970214844 36.98125457763672  3.303360939025879 8.971401691436768 37.0505542755127  2.885644912719727 8.36342716217041 36.76914978027344  3.36259821320091 8.314876111245336 37.94266112576693  7.530034065246582 5.693854808807373 36.93064117431641  7.158472240819719 5.982402862448815 37.69854611473971  7.776394319763912 5.920077024446915 37.74005898667806  7.327405775428547 5.458670294126204 37.72989766964606  7.124777485610511 5.223485779445036 38.52915416497572  6.955843951001683 5.747218347767646 38.49780261006937  7.573766029945876 5.684892509765746 38.53931548200772  8.022754574281242 6.146299240086456 38.54947679903972  7.404832495337049 6.208625078088357 38.50796392710137  6.786910416392856 6.270950916090257 38.46645105516302  7.076784815920403 3.814634371920813 39.32058651447501  6.510547822183066 3.139750521099979 38.98781838981014  6.809332381371719 3.162071424643153 38.51188955532069  7.001630275133556 3.186282350309781 39.10048753876097  6.884486922158567 3.790423446254184 38.73198853103473  6.585702362969914 3.76810254271101 39.20791736552417  6.692189028396731 3.766212520587556 38.14339054759445  6.393404469208078 3.743891617044381 38.61931938208389  6.926475734346708 2.55793032869875 38.88038856304694  6.094619910019425 3.721570713501207 39.09524821657334  4.75287389755249 6.103443145751953 39.89208984375  4.838018342526768 6.201188749274759 39.5616183878163  5.009682416915894 5.816402673721313 39.89208984375  4.675355911254883 5.72223162651062 39.89208984375  5.715946197509766 7.507949829101562 38.26385879516602  5.904234481853161 6.640628701916496 37.87753037041437  5.964789701503429 6.77712619947509 38.42403153008234  5.592574192088756 6.956540710202018 38.2577755791546  6.02760648727417 7.19203782081604 37.88361358642578  6.088161706924438 7.328535318374634 38.43011474609375  6.460377216339111 7.149120807647705 38.59637069702148  6.399821996688843 7.012623310089111 38.04986953735352  6.339266777038574 6.876125812530518 37.50336837768555  5.472159862518311 7.292301177978516 37.49935913085938  5.564580036204967 6.59748376058654 37.6757614952923  5.470681024593029 6.848716384640495 37.87552574700128  5.566058874130249 7.041068553924561 37.29959487915039  5.905713319778442 7.084213495254517 37.50136375427246  5.999612331390381 6.832980871200562 37.30159950256348  5.659957885742188 6.789835929870605 37.09983062744141  3.218475103378296 1.73854398727417 39.89208984375  3.073618058720145 1.605416483225976 39.6025682696723  3.106809496879578 1.398423969745636 39.89208984375  2.757665038108826 1.617303490638733 39.89208984375  2.296854972839355 1.496062994003296 39.89208984375  2.612807993450675 1.484175986590539 39.6025682696723  2.645999431610107 1.277183473110199 39.89208984375  2.995143890380859 1.058303952217102 39.89208984375  2.961952452221427 1.265296465697442 39.6025682696723  2.928761014061994 1.472288979177781 39.31304669559459  3.170961929824843 2.117095085017136 39.16223937154064  2.915793555070455 2.049053535432548 39.53663778312789  3.473643478132683 1.806585536858758 39.51769143216276  3.728811852887071 1.874627086443347 39.14329302057551  3.328786433474532 1.673458032810564 39.22816985808505  2.770936510412304 1.915926031384354 39.24711620905018  2.613112006762615 2.359563083590926 39.18118572250577  4.200717926025391 1.325392961502075 36.06771087646
[...]
<PointData  Scalars="c_HbCO2"> 
<DataArray  type="Float64"  Name="c_HbCO2"  format="ascii">2.8457801583958313e-42  3.2665765274940273e-42  -4.2515741366885721e-43  9.0168150728095139e-43  1.8939089338701954e-42  -2.7599404999880186e-43  1.5248145197172468e-42  1.9063134973233798e-42  2.0657384758521201e-43  1.0269118847849747e-42  1.1180504169204250e-42  1.4812663443096840e-42  7.9479409723549118e-43  9.6719186110444847e-43  2.6241017545942576e-42  3.8087603411220980e-44  1.6414987839685565e-42  4.7385893707348872e-43  5.5255607226441106e-29  4.5933986198067013e-30  6.9282385570089537e-30  2.9487353576279994e-29  1.9981460636230930e-29  1.8393710469489997e-29  2.4157017182923550e-29  1.3277371900051594e-28  7.3005883295182624e-30  8.9646406038807981e-30  7.7668416103483741e-24  1.4082931175553724e-24  6.2009804910093183e-24  1.0482277856808681e-24  5.5066357548627024e-25  1.3515282837560490e-25  1.1856089617508075e-24  2.6848721524883783e-23  2.1280869107206081e-24  8.3635048264524835e-25  1.7305867669509969e-30  3.7836804678946641e-30  4.6897980453815376e-30  1.2889435089821369e-30  4.2598371314758160e-30  2.9025524670565222e-30  1.9016658546951786e-29  2.5893671054149255e-29  3.5360475350312721e-30  1.8009023456883774e-29  2.1520865641407148e-27  1.9179514367480038e-28  9.6052456727135542e-28  1.2191916357181298e-28  2.8315542096755722e-28  5.4917435554725618e-29  1.5072171844573402e-29  3.5603700570408366e-29  7.1013731170724489e-28  4.8535749747365419e-26  6.6716671056348350e-25  1.2948741390710611e-25  1.6732481011405130e-25  1.1104261906207278e-29  9.3665665872287095e-31  4.6220881141382012e-30  2.9122222357842474e-30  9.9264963890518989e-31  6.3525891427406820e-31  2.6710888757076735e-30  3.6391338694789338e-31  6.1704947183286643e-30  4.0136844851853835e-30  5.0684623227469191e-29  2.9484310481020767e-29  2.1257199541553709e-29  3.7356725870693773e-29  8.2341649408666985e-30  1.8970443867013269e-29  4.7882130610783884e-29  1.1583704880893017e-29  4.1294947076051505e-28  1.1292854970392804e-28  7.0698151809143491e-28  2.5239514292537204e-28  8.8851882209660245e-28  1.1527839738254885e-28  1.7209391977431899e-28  6.1106575673489034e-29  7.8819089644138239e-28  4.5714418757843235e-26  4.1698283768279009e-27  1.3855750400201898e-26  1.2617062769516978e-27  6.7397616740167064e-28  8.3482062564364059e-27  4.6484126082640959e-25  3.9216049338496537e-25  2.8859570993000060e-25  1.4152496190601694e-25  1.1849802341734542e-25  7.2931133896400430e-26  5.4804478733898581e-26  9.3746043611302818e-26  5.2444072882910227e-25  1.3520956726132257e-24  8.9392988683252148e-26  6.3433051937307865e-26  2.8171366870633072e-26  5.6871401627031432e-26  1.2399988831212235e-26  9.9706787161752968e-27  1.1842029914485093e-26  6.2531824706375639e-27  4.6859089169175329e-26  1.5598134703712366e-27  3.1965494997258807e-27  3.1840441406484237e-28  7.7776337195552315e-28  9.9505216955070231e-28  1.9131439457301132e-27  2.8376556203632790e-28  1.4820078256953126e-26  3.9525800456169232e-27  6.9540248711299621e-32  1.2113812481198560e-31  1.9362568956877208e-32  1.0160777246324012e-31  3.6180820303458002e-31  1.2464960775571640e-31  5.4774713047803027e-32  1.8474957580518533e-32  3.3463776798805358e-32  6.2103137403438416e-31  2.0419134691786971e-31  6.0290488203436457e-31  3.2271816203937527e-31  5.6216613891616976e-32  4.2676320524472044e-31  2.9089550709238133e-31  1.8440289126579058e-30  1.4516471546817252e-30  3.7307320522606035e-31  5.0932636116494349e-30  1.1805764308650824e-29  5.8393842383148264e-30  2.7037348260304941e-30  7.2161993426040256e-30  6.8057934592047397e-30  7.2632214087492468e-30  2.5795081514360023e-30  6.1017304152609428e-30  1.5331226575234528e-30  4.3450096040563627e-31  7.7154808835004487e-31  4.5310653160461344e-31  1.9185049198180059e-30  4.9508388556063257e-29  8.7879396200066114e-30  1.5169484532184487e-29  1.6518322312059350e-29  3.9509951216398912e-30  3.8172941574761639e-30  3.1128386154843907e-29  1.0830831044459227e-27  6.5587090639320741e-28  6.0476227177466113e-28  1.4921272672829839e-27  1.3937230069224666e-26  3.0359909395168233e-27  1.6737875097160445e-27  1.7608647913445995e-27  1.2406093240554350e-27  6.9755089954416291e-27  3.4830451289861063e-27  2.6399906224996785e-27  7.3014795908788118e-28  3.0032897908941165e-27  1.0445241689487802e-27  1.2748490723207087e-26  5.6727868331183672e-26  8.2328209260260431e-28  2.6168311140467809e-28  5.0142404513412623e-28  4.2929402148522206e-28  8.7472294000034145e-29  1.6410760830870775e-28  6.0987366673111138e-29  5.5319490588791552e-28  8.7546517910969003e-28  6.0091988670051231e-27  8.1064910948556605e-30  5.4335837134615937e-30  3.3433374419121120e-30  1.6030923064263828e-30  3.7461214515266783e-30  5.7928045227725850e-30  1.5941207686033681e-30  9.5980230694868602e-30  1.4515734737735912e-29  6.3999999999965607e-22  5.2706898966529278e-23  3.5218865793653841e-22  5.8639480151535326e-23  6.3999999999965607e-22  1.1969394204008638e-22  6.3999999999965607e-22  3.0195059931423446e-23  3.8974369463314012e-23  4.7833056101003209e-23  1.0201243885463346e-29  3.0915923079063980e-29  1.2040998358860060e-28  1.4223358232498283e-28  8.5055110908427843e-27  2.2220888149959293e-27  1.6256352051547303e-27  3.9968400034089865e-29  2.2311766539976789e-28  9.1165088807388245e-29  2.5088311222215524e-28  3.6360881179995619e-28  8.1237020810888158e-28  5.3355433056412628e-29  1.2632122180556475e-28  5.0822213147497734e-29  7.3256259995856898e-33  2.3690933228333765e-32  4.6380346904065074e-33  1.0751299926611175e-32  2.3190207417319668e-32  1.4342751793139304e-32  1.0703378562886219e-32  2.7106268486612456e-32  2.4601570637230111e-32  2.2169012857853428e-27  3.1587425471815934e-28  2.1665280690040042e-28  8.0214468505848786e-28  7.2581416192637906e-28  1.0911116406348045e-27  3.9384710732308577e-28  3.8040284321742715e-28  6.4332025055157456e-30  3.3717918820742071e-30  1.9480151867882155e-30  1.4099233631675463e-29  5.8736055973698258e-30  4.7092793540694183e-29  2.2419317451193497e-29  2.6581668315743513e-29  3.1208576707982062e-28  1.5467584776827599e-29  4.7333967713695300e-29  1.0808934852727292e-29  2.0856060537624051e-29  1.7759986088635263e-29  2.8213178075721245e-28  4.3233022646618345e-29  4.6507162641403511e-29  4.2885036662698054e-29  1.0002906232812053e-28  2.2835377533706308e-26  1.1963046312980145e-25  2.1110026060723799e-26  1.2481076554710590e-25  1.8276496783325393e-26  4.3116745193545134e-26  1.0778187075753349e-25  2.4016414851211277e-25  5.7041738532286047e-34  8.7147802935160371e-35  7.6744337026685246e-35  5.1721240544820916e-35  2.1732623350554738e-35  3.6946233552609003e-35  2.2780717958464588e-35  1.3694150593602493e-35  2.8623608305479862e-35  2.0591085299926386e-34  9.7448026149413947e-31  6.6941148433082598e-30  7.3460966159609547e-31  8.5697242204174088e-31  2.4443909409185862e-30  2.6200257612732751e-30  4.1905087783101631e-30  1.0932414977266608e-30  6.1222083992519586e-27  2.7496138783096781e-27  3.3536526406577080e-27  1.1514715127746726e-27  2.9639553600534408e-32  1.9936774776540323e-32  1.1331004343807913e-31  5.7749812803524441e-32  6.3361040310774784e-32  1.2925657727701708e-32  3.0528612560106354e-31  1.7998582620975238e-32  9.8945897127141537e-33  6.3292890021083148e-26  3.2491444048004899e-25  8.2050431095068601e-26  5.6968796110417015e-26  9.5623032756013522e-26  1.6890497328060581e-26  5.1379075613621389e-26  4.4705111451379950e-26  2.1678887377916980e-24  8.3769011441920841e-25  1.6626006160315088e-29  6.9270698443270494e-30  8.2929522832891899e-30  1.6189958636303876e-29  6.4101908620713569e-30  7.1022661553708906e-30  3.5282183881376706e-29  1.4462235385836823e-32  3.9763492895239517e-32  8.6873531502778614e-33  2.0339534681440008e-32  9.0804367728513077e-32  8.6022721352748519e-32  1.1543986003563244e-31  7.6757281593452748e-32  1.2166998784565161e-27  3.8573867302973335e-27  3.1068186548373172e-28  3.2357548135422724e-27  7.4128615498252340e-28  6.4425514734383825e-28  6.7631177448990374e-26  2.7415868522117458e-27  5.0872601412556993e-27  2.1048406535057220e-26  6.4721526289839369e-27  6.9083322551299668e-27  1.8379834268312283e-27  2.1177173122859993e-27  5.6847213408052559e-27  5.5001278733166553e-27  4.0408779049497043e-32  7.8646583723120310e-32  7.4528976237263076e-26  8.2670694929548546e-27  4.6025166390127502e-26  1.2451289216585646e-26  4.5964261865650363e-27  3.7996530110679400e-29  1.2333408971999969e-29  1.0941757884181877e-30  7.9706900607317010e-31  1.1463936809753601e-29  1.1441416725381250e-30  9.2533977443516615e-31  4.0036052961690297e-31  1.5027651003860773e-31  6.8504592396299882e-31  1.7411229873361192e-29  2.8014847381980088e-27  9.8040120469600277e-27  3.0601943206142372e-27  9.2678774436448431e-28  4.8999974322293183e-27  5.1266596415858101e-28  1.0840496675486978e-27  9.0047664493404414e-27  1.7498611313506599e-24  2.7851041338010224e-23  4.2703128515203294e-24  1.4354172966084455e-23  3.4887782005846740e-24  3.4108549631871899e-23  3.2883203963843588e-23  2.0477176617744566e-23  2.9200585143013088e-23  8.4587133169147999e-31  1.0554269508177391e-30  2.9206105354890871e-30  1.1434556543855372e-29  1.3794010643843045e-30  5.1787170020278825e-30  3.9526407720850294e-30  4.7463355554698825e-28  4.0368748612695553e-28  7.1803278607037655e-28  2.7285224781804286e-28  7.7378998601973952e-28  3.5704965292916904e-28  2.6110732979979694e-27  4.2880201975330151e-27  4.8988349162253679e-28  9.9375290502143175e-24  6.5239671627918770e-25  2.3689860886214585e-24  7.9856777483590496e-25  2.3057721759924608e-24  2.8757257307278345e-24  1.9273738753620929e-23  2.5662848816381847e-26  1.1657684155994626e-27  8.5234983902108100e-27  5.1655882079288037e-26  9.8409854919943176e-28  5.0522681928388342e-28  2.1562960944932316e-28  3.9788906181988177e-26  3.6853206007196742e-26  4.5983569235146847e-26  6.6663658593766103e-26  5.5704045685432876e-27  7.4273714061313532e-26  2.5547355911136333e-25  1.3899805987861142e-26  1.1877275400573294e-24  2.2786845780006571e-25  8.4688847826510810e-26  2.6600069270558343e-25  2.8977331616834530e-26  6.8887258071599722e-26  2.7597900034557420e-26  1.0174601031743136e-25  7.6602201591223359e-26  1.1261809625622165e-26  1.7823901577205491e-25  3.7664040939790225e-27  3.8346139817226420e-26  2.0889623417041139e-26  8.4756771612039078e-26  1.7608824065461979e-25  1.6739958925313379e-26  8.8068726396987403e-26  3.6822426566371220e-25  7.1345054170098979e-26  1.0820059084767808e-25  1.4923598828513024e-25  9.2929477774949391e-32  1.0782460055062851e-31  3.0945436914007475e-32  1.5273117631337564e-31  7.5788416048451712e-32  2.3685786051795436e-31  2.2268824547031667e-32  1.2425585838640701e-30  5.4230355605062542e-29  4.8439030709190588e-28  1.7380212187116098e-28  1.6944962914377133e-29  5.7589195081960085e-29  2.2335640056554167e-28  1.4092700789559234e-29  2.7540660871187152e-25  3.4809143490836165e-26  2.4638811529727583e-26  3.0688770317292067e-25  5.6048478193010920e-24  3.6641019190045658e-25  2.5575142244943944e-26  1.7513640823844895e-25  6.3999999999965607e-22  6.5585218272309526e-23  2.9560415785556148e-22  6.3999999999965607e-22  2.7669859577614904e-23  1.6754307225508287e-30  7.1005828829185801e-31  2.4577802932088680e-31  1.1780542960295303e-30  5.9902468287761469e-31  1.2095676334674925e-31  7.6232692364993961e-32  6.3626753553041874e-32  8.3160484012772315e-31  2.5981629272097330e-23  5.4767002571516506e-24  2.4797389832473952e-24  2.7010379743957460e-24  5.8807423437713554e-24  2.3417090769030751e-23  1.8396049244922720e-23  7.2265928848187468e-23  2.5271441491053319e-29  2.1908529668752074e-30  3.0862175027629418e-30  1.1094654052035527e-30  2.3394969967918060e-31  4.8899282291491652e-31  8.4155295556483172e-31  6.0057161816198688e-25  1.0723257003824730e-24  1.4761467072811202e-25  8.3102410183863133e-30  5.1123361550204887e-30  2.9205533914818273e-29  1.0141076745813356e-29  8.2192559791934861e-30  2.4009749169982844e-30  2.1191935568899585e-29  6.2871074834054191e-29  6.8331280597326674e-30  8.8532484568646761e-29  1.3110422763892007e-30  8.0586635729387656e-31  8.9530366840634995e-31  4.2961072191412587e-30  9.6991676230449373e-32  3.5919051715693585e-31  5.1197864188900473e-30  1.2993154301089216e-30  1.8483805024195229e-30  4.3324881490407323e-30  1.2217539139307426e-30  4.4624375908601029e-30  8.3340519357428368e-31  1.8157676084327155e-30  8.4955475510892711e-27  4.5926440430362543e-26  1.3939561998612903e-26  8.8555562206766187e-27  9.2423447659226229e-27  5.2057077664326729e-33  7.4983352493883542e-33  5.0836637337178164e-33  4.3910177113889811e-33  6.8125032124296969e-33  8.6264983915981101e-32  1.2973339174613859e-32  1.1210964263536491e-27  9.6061943488607733e-27  2.3596566898123964e-27  9.3621380506719797e-30  1.8857695903152978e-29  2.7810412010050043e-29  1.5579618143081358e-29  3.0459911367354809e-30  1.0467537770133741e-29  2.3721921337710443e-28  1.0839830667518622e-28  2.9655130566181576e-28  1.9145331544732990e-28  1.4677410015279879e-28  1.6082653816741659e-27  3.2901607441803607e-28  6.1478569426946862e-27  4.0853579134732274e-28  4.7874208389961841e-28  3.2589160423483249e-30  1.4549893065211724e-30  2.1405176769351993e-31  3.3944409968560328e-31  3.6214566019990677e-30  7.9764327139614522e-34  6.8409518631143323e-35  3.8493022147228475e-35  8.6099644484850375e-35  9.8585960004078749e-36  3.2533856058787348e-36  1.1592553692963459e-35  2.2780435514856806e-32  1.9362161046583610e-33  1.2681552584222177e-33  4.6751375587180155e-33  9.2966141732762430e-34  1.6032778664003687e-33  1.3592544522366474e-33  7.0489998745261372e-34  4.7774445555342102e-33  8.9843709038350133e-33  6.3999999999965607e-22  2.0187668095301709e-22  3.0140241777216158e-22  1.8559054017700755e-22  2.5951100810154337e-22  6.3999999999965607e-22  6.3999999999965607e-22  1.0968885280138438e-29  2.3692315160270589e-29  6.8531061567749582e-29  4.2245746364250514e-30  2.1467213816156813e-30  3.1120112833118702e-30  9.1612389348472506e-30  9.5816959578427995e-32  3.6719931879220837e-32  1.3411128152261307e-31  1.2306106225290170e-31  1.3386436305378869e-32  7.8037866106686282e-32  3.1784710657086397e-32  6.9247115698644270e-29  6.4944425851976284e-28  6.1850220770952169e-28  1.0479983070273008e-27  6.3780910422446618e-28  3.4876683730120911e-28  1.7394161543885520e-24  2.0760562537999860e-23  2.9485852495892516e-24  2.0828907874684229e-28  3.2046809292313982e-28  1.1882045120206772e-28  1.5978370987132587e-28  3.0553908300311032e-28  5.6963317359097246e-29  7.6655373829867040e-36  2.0205899945839230e-36  1.3512632363052974e-35  4.9215355894817678e-36  3.7055816348146337e-29  2.2183948624040365e-29  1.7627834882340661e-29  4.6209203608398504e-29  1.0127585942792118e-28  4.3047950452808553e-29  2.0195784638633599e-29  2.1153978591621917e-29  1.4198865018292900e-29  9.8941882056798349e-29  2.9607974582797073e-25  1.1396234190321714e-25  2.3354453403552965e-25  4.1078155681965844e-25  1.4523688543616761e-25  4.8206680942515342e-26  1.6953640203567520e-25  1.3199720103055160e-28  2.2517037779688174e-28  2.8880124573436994e-28  2.6688406596440119e-28  4.5136743589611330e-29  5.0424961948638616e-29  1.6458215098904925e-28  5.3916102733801428e-28  1.9604021321393269e-26  5.3451231651953442e-27  9.0400475944020944e-27  6.3724508098358091e-28  4.7941950161899955e-30  6.1069790830701962e-30  1.1127335018456327e-29  1.2531516772346903e-30  7.3817013730782403e-29  3.3006834158309803e-30  6.1751785183362929e-30  2.5950360785734516e-29  8.2076491406073186e-30  1.0516725817967116e-28  3.2543794600523425e-27  7.4229534561508868e-27  4.7398089402930211e-27  1.4575276994441017e-27  1.7452312604427433e-27  1.0964861363666100e-27  1.1096809266629324e-29  3.9710413535934988e-30  2.6841945580152847e-29  4.4418694119422723e-30  7.4471742824361588e-30  9.8122903759490351e-30  6.1751471129999732e-30  3.1339502574785210e-29  1.6242597082202731e-29  1.3169844074197371e-28  3.7816202887081538e-29  9.0749351118444844e-29  6.3999999999965607e-22  6.3999999999965607e-22  6.3999999999965607e-22  8.6038373284927367e-23  1.3757583818029154e-32  1.4395667356789332e-32  2.4042575104386709e-32  2.3168964129946448e-32  3.9496600540467653e-33  3.2234790718416044e-33  6.5021988763647778e-33  2.2914038794351544e-33  5.4944539651506566e-29  6.6627891778400772e-29  1.5841668090514976e-29  3.7683126267540663e-27  3.7436689978091163e-27  6.0681353361691613e-27  7.2849959945881748e-28  3.3811325635114291e-27  1.0722061661081708e-22  3.3748342310834989e-23  4.8307417836934954e-35  5.6900010903409372e-34  3.6093944769032593e-35  6.3704200890188945e-35  8.7038627052544341e-35  1.0949556763935034e-33  4.0200167331191739e-34  2.0981050446992800e-34  2.3040428732597944e-34  5.0649747100151818e-28  8.9803874198368552e-28  5.8858629566886317e-28  7.5285729918278565e-28  1.1421397901622569e-28  2.4729675514625376e-27  5.7030090342684268e-27  6.8948045936712304e-27  3.3340986436273948e-27  6.3542254200993427e-27  1.3416135901057038e-29  4.4700123372908881e-30  1.6964857835155180e-29  6.1513238584885120e-29  3.9590338067873854e-29  4.5257678653103595e-29  4.8946698782277958e-29  7.2543958072915335e-29  1.8388418909938930e-29  1.2667107790441379e-29  6.8207389061463313e-30  4.5878357725304539e-27  1.4242006466461895e-26  1.0428878242589994e-26  4.5705208338661950e-27  8.8020608284600689e-27  5.2416091372031600e-26  2.4233262937273281e-26  4.0091081110655185e-29  1.2059041139012955e-30  4.1193449055109492e-31  1.4123339497783797e-30  2.7892536714239061e-31  7.6127529234515163e-31  2.0059205421695520e-31  1.1513890145105956e-30  5.9484563252597744e-26  9.5912277480918147e-26  2.2148330513984234e-26  3.9084385419451842e-26  5.1540865003897073e-26  1.2031820185853518e-25  1.1829766781494668e-29  6.3479653742507654e-30  2.3782553088986883e-29  7.7760041136023116e-30  2.5694100724290291e-30  4.1321202281577699e-29  2.1457151695770455e-28  2.5010152030127174e-28  4.3540373479529133e-28  2.1591856572649800e-28  2.3074207764422832e-28  2.2040440792708058e-28  1.9069672864979836e-27  2.4747124769471984e-28  4.1845076976855069e-28  1.6836548845487021e-25  1.1137375181929032e-24  2.1793729646373958e-25  1.6692875860162250e-25  1.9550414645094818e-24  1.2441890047300159e-24  1.1684110002400080e-24  3.0749170164053532e-25  2.9091140780549629e-24  2.7902329016433269e-24  1.3084156358072999e-24  7.2710461983433694e-25  9.0813051260237772e-26  1.7064004725646213e-24  9.6829249301959626e-25  1.9999142445553362e-32  3.8510509085284787e-32  2.7443504655764559e-32  8.4487616122933945e-32  3.8942018904401304e-32  6.6158889004665967e-29  3.5428872207711376e-28  4.0162724521362735e-29  2.1801301617528787e-28  2.7892376838093976e-28  7.5366749483366268e-30  2.0574746912799919e-30  1.0594276505613710e-30  3.1817012404326050e-30  1.3187053275252574e-30  1.5778216724055699e-30  1.0373741466257400e-25  1.2424245302945672e-25  9.9515570385658023e-26  3.9366284055209690e-25  3.9218197618319849e-29  2.9617125202402803e-29  1.2783955739426091e-28  1.1230732800469596e-27  1.3826993461753664e-28  8.0135755213049568e-29  1.1315271196424035e-26  3.1022892127968560e-27  1.2907407774976555e-27  1.4270936710209920e-27  3.0058040047489439e-28  8.4561168354729194e-29  3.3274302050022542e-29  7.7727759990535885e-28  6.6408487891212232e-28  2.8794624018702144e-28  4.5684641104689826e-29  2.7969786630806111e-30  4.4541658769979194e-31  9.7000323169250167e-25  2.0795515763660530e-25  3.3659213470109844e-25  2.1069549079536699e-25  9.5861134842848151e-26  1.3067977125147119e-24  1.2707284866561091e-26  8.1830821772406328e-24  3.6389141644017434e-24  2.4408733793308835e-23  2.8041841375861850e-23  7.9952685821401017e-24  2.3780345136606856e-24  2.7617456366977756e-25  5.8009398161885893e-25  3.0454185297201141e-30  2.7924569078485418e-30  5.7951418492902258e-27  1.0043872942968442e-27  7.7436623332329263e-27  1.1736522969869065e-27  1.1931315935481345e-25  4.6230468089811971e-30  1.491971171