<?xml version="1.0"?>
<VTKFile type="UnstructuredGrid"  version="0.1"  >
<UnstructuredGrid>
<Piece  NumberOfPoints="7225" NumberOfCells="33432">
<Points>
<DataArray  type="Float64"  NumberOfComponents="3"  format="ascii">7.130919933319092 21.95130920410156 9.591677665710449  7.053240721398434 21.14328867758906 9.652999901911713  6.874802206553635 21.38060853670148 9.210291911159516  6.831433366321262 21.66536391179576 9.565879764185343  7.174288773551465 21.66655382900728 9.236089812684623  7.21765761378384 21.38179845391299 8.880501959658798  6.531946799323432 21.37941861948996 9.540081862660236  5.555941104888916 21.99547004699707 7.963535785675049  5.986680744953111 21.32932484456133 7.753163435397302  5.694508059575391 21.5703176931807 8.189030891337591  6.013256533696484 21.70287746948685 8.320296293177801  5.833075014261865 21.14516533936432 8.414525997000135  5.431158065795898 19.50534057617188 8.2257080078125  5.632116540028882 20.3252529577681 8.320117002406317  6.030406100399723 20.02059612364869 8.070918517359511  5.283102989196777 19.95593547821045 7.950772523880005  5.135047912597656 20.40653038024902 7.67583703994751  5.484061463429761 20.77584785980667 8.045181518473822  5.882351023800602 20.47119102568726 7.795983033427015  6.629654135003547 20.5358516711255 7.916129026906521  6.231364574632706 20.84050850524491 8.165327511953329  5.445780499532056 21.24785275024857 8.077055936732489  5.307213544845581 21.67300510406494 7.851560831069946  5.058485984802246 21.35054016113281 7.739585876464844  6.525366314022852 21.26348189663866 8.647513978329467  6.766793811248737 20.84026175323409 9.098111653844409  6.472792071858591 20.41728836184034 8.615925187468271  6.315930008713635 20.29872505255518 9.315721348030022  6.07450251148775 20.72194519595975 8.865123672515079  5.637667194121007 20.96000736500368 7.383818956870989  5.096766948699951 20.87853527069092 7.707711458206177  6.423938404018534 20.83907183602257 9.427901605345129  6.945232326093535 20.60294189412167 9.540819644596606  7.574534643473436 20.90715873568816 9.765917941163188  6.544442161590029 19.79252162093282 8.226966686833276  6.077309491060911 19.28966574691793 7.895361056665537  5.945194126986204 19.27726607345601 8.381756177286265  6.459230188176509 19.04919157074015 8.53780434676003  5.676634073257446 19.11207008361816 8.014814615249634  5.922110080718994 18.71879959106445 7.803921222686768  6.190670134447751 18.8839955809023 8.170862784723399  5.808749437332153 19.12446975708008 7.528419494628906  6.466751537872357 19.05860025463717 7.585484561278179  6.877893182663266 18.47198740538074 7.79440253392146  7.01139299502572 19.39840091820989 7.367047899869589  6.735311591601114 19.22379624447502 7.95242612331481  7.146453236392023 18.63718339521859 8.161344095958091  5.873544037254767 19.90203281436353 8.770714677921262  6.387580098445072 19.67395831164767 8.926762847395025  7.77174979742095 19.87771146066953 8.926403541802012  7.115489992798729 19.46345151570484 8.732103944281022  7.391571396223335 19.63805618943971 8.1467257208358  7.802713041014244 19.05144334018328 8.355643693479081  7.200701966212248 20.20678156589751 8.421266284354267  7.043839903067292 20.08821825661236 9.121062444916017  6.562094996951755 21.77080977361217 9.18281072579423  6.592243194580078 22.16220092773438 8.825539588928223  6.182510906792649 21.26229197942714 8.977303929830185  6.212659104420972 21.65368313354935 8.620032792964178  7.494703705602395 20.62975495729126 8.903452750730406  7.673142220447193 20.39243509817885 9.346160741482599  8.314351081848145 18.91546058654785 12.16154003143311  8.559865699625938 18.49675255408892 11.69206578542727  8.4764168127546 18.44935780158648 12.10053069402712  8.198664890147178 18.66399269691119 11.99596078207033  8.592103004455566 18.70082569122314 12.26610994338989  8.675551891326904 18.74822044372559 11.85764503479004  8.082978698446214 18.41252480727453 11.83038153270756  2.867454051971436 17.59350967407227 12.36075973510742  3.10566504342513 16.99525744528929 12.43594191469663  2.877572315941633 17.38383343415933 12.60039078940653  2.679214477539062 17.33117485046387 12.37905502319336  3.095546779454932 17.20493368520222 12.19631086039753  2.490974903106689 17.06884002685547 12.3973503112793  2.907307205022559 16.94259886159383 12.21460614848347  2.68933274150926 17.12149861055093 12.61868607749246  3.323639506938429 16.81635769633218 12.03186198568764  2.887690579911831 17.17415719424639 12.84002184370563  4.461253782041516 16.91774389383706 12.5489606132953  4.334391063575481 16.85253755445208 12.05005048170525  4.757126717144926 16.76419134803159 12.0777470249785  4.740684890080546 17.43711129551097 12.10604300075699  5.020115998119576 17.95647869718487 11.66312538821868  4.61382217161451 17.37190495612599 11.60713286916694  5.036557825183957 17.28355874970549 11.6348294124402  5.052999652248337 16.61063880222611 11.60653343666171  4.630263998678891 16.69898500864661 11.57883689338846  4.207528345109445 16.78733121506711 11.5511403501152  7.464378692827554 17.692769209955 10.73565072798398  7.524741982979428 18.52613724195717 10.92507402549696  7.593814639993584 18.24288547443329 10.28024777740691  8.071023675552802 18.03315006174634 10.69653892549043  8.677668658278051 18.37353091353767 10.65742712299689  8.131386965704678 18.8665180937485 10.88596222300342  8.200459622718833 18.58326632622462 10.24113597491336  7.723250587159614 18.79300173891157 9.824844826829839  7.654177930145458 19.07625350643546 10.4696710749199  7.585105273131303 19.35950527395934 11.11449732300995  5.398435548191769 16.91313783175742 12.13283216165574  5.102562613088358 17.0666903775629 12.60404574997254  5.743871444135199 17.21563686128873 12.65913088664978  5.381993721127388 17.5860577792368 12.16112813743423  7.004564926949064 18.39622303027918 9.743174252718344  7.506009953004846 17.92576607734442 9.559603541412356  6.875128979783034 17.84610676580089 10.19857720329541  7.376574005838815 17.37564981286614 10.01500649198942  7.288769318850078 17.05853041577727 9.294362255994873  6.787324292794295 17.52898736871202 9.477932967300859  6.285879266738513 17.99944432164678 9.661503678606847  6.495824813842773 17.85296058654785 14.45977020263672  6.421104138445901 17.66191226075982 13.58814251394477  5.944380609130439 17.54135140530757 13.92852260122629  6.408078128129885 18.02035039199642 13.92021908540339  5.931354598814424 17.89978953654417 14.2605991726849  5.366884383786074 17.94661848654049 14.06142814273309  5.843607913101535 18.06717934199274 13.72104805545157  6.320331442416997 18.187740197445 13.38066796817006  5.067448139190674 16.66169929504395 10.47673988342285  5.949963122236879 16.2457362911699 10.75328883962793  5.316670117453114 16.2185673887952 11.10522156262684  5.470886089075651 16.89680593089687 10.69517504548765  5.874324038960628 17.13191256674979 10.91361020755245  5.72010806733809 16.45367402464813 11.32365672469165  8.293628692626953 18.61087036132812 12.75601005554199  8.363455364109265 18.44286160765942 12.35729241664821  8.303989887237549 18.76316547393799 12.45877504348755  1.698029041290283 16.90216064453125 12.71739959716797  2.004511710238224 17.16279931529319 13.13435618957996  2.292859810601057 17.03815891938882 12.7787107204368  2.249078812482246 16.75319127543481 13.1198524057532  2.800128583674209 16.60422190633837 13.52230521433843  2.555561481430187 17.01382994619674 13.5368089981652  2.84390958179302 16.88918955029238 13.18116352902203  2.599342479548997 17.29879759015076 13.19566731284879  2.310994379186164 17.42343798605512 13.55131278199196  1.453024983406067 13.62014961242676 15.38488006591797  1.567306139212513 14.13423828607167 14.79559904679195  1.731877041502284 13.98376722701457 15.18179573897174  1.247805846907777 14.14628312413402 15.39217190132405  1.288454081116296 13.77062067148385 14.99868337373817  1.042586710409488 14.67241663584128 15.39946373673013  1.526657905003995 14.50990073872183 15.18908757437782  1.083234944618006 14.29675418319112 15.00597520914426  1.123883178826524 13.92109173054095 14.61248668155838  2.010729099598501 14.34738484160238 14.97871141202552  2.340464115142822 17.61845016479492 12.87679958343506  2.325729247164493 17.52094407542502 13.21405618271351  2.614077347527326 17.39630367952066 12.85841071357034  2.019246578216553 17.26030540466309 12.79709959030151  1.881326475804844 15.04932270368602 15.17483695731584  1.513934315233024 15.4362151539098 14.52749419138967  1.397255281210338 15.21183860080547 15.38521311966815  1.159265744432175 14.89679318894561 14.54174480845165  1.751923852011187 15.75126056576966 15.37096250260617  6.954018115997314 18.16926002502441 13.84323024749756  7.058749054850907 17.89319639076426 13.20821201778157  7.356256484985352 18.21382999420166 13.58138513565063  6.925742149353027 18.40835475921631 13.62551498413086  6.89746618270874 18.6474494934082 13.40779972076416  7.03047308820662 18.13229112495615 12.99049675441487  7.327980518341064 18.45292472839355 13.36366987228394  7.758494853973389 18.25839996337891 13.31954002380371  8.378021240234375 19.17583084106445 11.54607009887695  8.527844949256213 18.77468087730106 11.10174861093692  8.601410388946533 19.19078063964844 11.26235485076904  8.70738697052002 18.87840557098389 11.54991006851196  9.036752700805664 18.58098030090332 11.55375003814697  8.857210679541858 18.4772556072205 11.10558858057193  8.930776119232178 18.89335536956787 11.26619482040405  8.824799537658691 19.20573043823242 10.97863960266113  8.751234097968371 18.78963067588505 10.81803336282901  8.204952405394998 19.28261785609588 11.04656846283554  7.981563256682839 19.2676680575119 11.33028371094345  3.623003959655762 17.42263031005859 11.12012958526611  4.145331501960754 16.99033069610596 10.91617488861084  3.915266152382603 17.10498076256285 11.33563496769066  3.692465424537659 17.05221557617188 11.03391981124878  4.075870037078857 17.36074542999268 11.00238466262817  4.528736114501953 17.29886054992676 10.
[...]
<PointData  Scalars="c_HbO2"> 
<DataArray  type="Float64"  Name="c_HbO2"  format="ascii">2.3382495842455915e-28  4.2901811320397335e-28  2.7151113693906795e-28  6.1416695070792687e-28  5.0230188615760689e-29  1.1336003666196857e-28  4.3529189880472636e-27  1.0622176361900705e-27  2.6423906228499740e-28  9.1077569071709248e-28  2.0638711577258833e-28  1.7330771906739127e-27  9.9829617516051066e-28  6.3007080353123202e-28  1.6254810924670407e-28  5.3574513612535591e-28  1.0754525148705352e-27  7.7484594368418463e-28  1.8463368149132079e-28  2.2444633445971833e-28  2.5920249795426388e-28  1.2951503661919091e-27  7.1894614161300766e-28  3.0112022254247026e-27  4.5584912886375618e-28  4.2950798266089427e-28  5.7235306449069730e-28  6.7451586808899059e-27  2.2662194075063512e-27  1.6792313680972099e-27  6.5713901925018339e-28  1.8906508057132849e-27  9.8123731301736210e-28  6.6305545121225968e-28  1.6568309924131618e-28  7.3499027205169573e-29  2.1641133779711742e-28  2.7752989372624965e-28  1.5659441595757626e-28  2.7666063185264214e-29  5.8495106297789136e-29  1.6529688445457855e-29  1.2349241791753900e-29  8.2070964655781774e-30  1.4300232541621291e-29  2.3593064243733522e-29  1.3444116362548872e-29  1.7274334626402523e-27  8.9501802688188746e-28  1.8043859566961024e-28  2.0231478242355989e-28  3.7628354048938563e-29  1.3063666000429806e-29  1.9243868598827069e-28  3.8102812446200887e-28  4.2517195044195482e-28  4.5399572312499085e-28  1.7587986846077539e-27  2.8056866108937194e-28  2.3579307356917902e-28  1.4374622307286677e-28  2.8317646305868689e-28  6.1569316043945004e-29  8.3436886708266210e-29  2.0250801760648427e-28  3.7734540065101020e-29  2.8249572753589716e-29  1.1511620565804733e-27  7.6233775287800485e-23  1.3705737512512250e-22  7.1332149770586912e-23  2.7545936894436539e-22  3.9235811186137016e-23  1.9208070100384375e-21  9.4756622544772307e-23  8.0053460540568912e-22  3.5892920596684804e-23  7.9888202006018553e-22  7.0663801690903143e-24  1.3420296335183858e-24  5.9817063475898764e-25  8.5968602691864404e-25  8.5572875109858041e-25  4.7934609003599381e-25  1.3552524642458812e-25  3.8603693397874446e-25  2.8165937506387067e-25  2.2750833138007584e-24  3.4019759465435765e-27  1.0385367520420237e-27  4.2808400194387373e-28  4.4577714765149743e-28  1.1451133684291022e-28  6.2799374088304527e-28  1.2401030133154548e-28  5.9675542357059721e-28  7.0794865694171598e-28  9.1628160827263612e-27  2.6378147413137691e-25  1.0717561599854499e-24  4.7347152450056815e-25  1.7645395953071206e-25  4.1187304904990739e-28  2.3677374610472684e-28  1.7513918031228258e-27  1.5974148477814414e-28  1.2213814302518323e-28  2.0704612645558171e-28  1.4371013379720290e-27  7.5743522053038675e-26  2.9595738679802576e-26  2.3021458245026942e-25  4.2118328763040358e-26  1.5918594144268049e-25  3.2079257888994000e-24  4.1816354511960815e-25  1.2108080594832364e-25  5.4932964531924543e-26  1.2443748713315570e-26  1.0613954430342875e-25  7.9282242710189088e-27  2.4798963152651437e-26  3.3068742698896856e-26  3.9190025340715037e-28  9.0583721036724857e-29  1.6663847714365651e-28  4.9400836249769148e-20  1.1409052166099371e-20  3.5431479811589011e-21  1.3876074492739447e-20  1.1085380200780397e-20  3.3679470940745996e-21  1.1658854241634666e-21  2.0031256715179613e-21  2.1418796537229686e-20  7.0204416835855895e-20  1.1639639378941103e-19  1.9778145439288543e-20  2.4618569351755785e-19  6.4627234117856895e-20  1.0070631862959943e-18  2.3830581629106932e-19  8.3093522246105644e-19  1.0977660182938283e-18  6.0031832967933527e-20  2.8147791575411186e-21  4.5603010397231352e-21  5.8565859582886909e-22  7.1840592461245145e-21  4.4780555713281419e-20  2.1375841719930961e-19  2.0651392519457735e-19  9.2964909145522145e-19  8.3483857034589227e-20  1.1845263530819655e-26  5.5238132666763923e-27  1.2492485564599074e-27  2.9346369345390930e-27  1.1312268286249213e-26  8.1662535914835868e-27  1.8377882103914667e-27  1.2623393081247588e-27  3.9237708771514957e-28  6.4199259840822759e-29  9.2199071685179053e-29  5.8224105572705017e-29  2.7502188248823495e-29  3.8393340913312189e-29  2.5120330010258645e-29  2.2602964605160929e-28  5.2448805496482481e-29  3.0181231982119764e-28  1.0140434900737050e-27  2.4849623792778997e-24  5.1374018108435285e-25  5.2039536993732328e-25  1.2632265550572330e-24  2.9107036892592081e-25  1.5347627540055798e-25  2.5283543887396963e-25  2.2973323775568380e-24  6.7410451550937563e-25  7.2804883762336225e-24  2.9051059550808377e-23  1.6626663741416970e-23  4.0175998278538295e-24  2.0182030684482544e-23  1.1564819511231805e-24  6.6825176188105513e-22  1.9148009651205850e-24  1.5610091511177856e-23  5.0538928497630486e-21  7.3398049770352652e-21  7.6728117465099235e-20  1.0798227893432047e-20  1.6832754896571490e-26  1.1543372029941811e-26  4.4392969901604547e-27  7.5586259267328795e-27  7.0259786530269973e-27  2.7147662142739459e-27  2.8588021814997433e-27  3.0538245404782547e-27  4.4056044674802922e-26  9.5481517111327665e-24  1.0337984018545922e-23  8.3883531619001627e-24  9.4355683530217348e-24  1.8335588291851271e-22  2.6767451427947649e-23  5.1703120065438325e-23  2.4281703806382807e-24  3.1892644377512094e-29  1.9097521009912528e-28  5.3942001666429005e-29  1.1477283744371659e-18  3.1796063061198616e-19  1.0471122338664868e-18  1.9612006058814498e-19  1.3165829221099046e-25  6.9036810612624044e-26  6.7382205833856036e-25  4.0331781405750358e-25  2.3795781076362669e-25  1.8789439096885866e-25  2.9178820986333461e-26  2.0759220005036058e-26  6.3446889452978987e-26  2.4120153174721523e-26  3.9831216655689817e-26  1.6427198720680413e-26  2.6993491923053049e-25  1.9999999999989253e-17  1.3587342051005781e-18  5.4841749694620353e-18  6.1738997501837457e-18  2.9861253285859046e-25  1.7496339880039138e-25  3.8136487324260742e-26  3.6268756163601848e-26  2.2596412699665322e-26  6.2644734315663467e-26  4.2626100426775358e-26  4.5622279596733251e-26  1.6342578291283012e-26  9.7843028203241580e-27  2.3127525685593625e-26  5.3508415021167474e-26  1.7927112086114778e-26  1.0439648091362663e-26  4.3379359433405409e-27  2.0149855916720766e-27  1.3216904302334025e-26  2.4158588043120116e-26  5.0594382238217169e-26  5.0207741044166702e-26  5.1544493057257905e-26  8.5735023271768288e-26  1.6450448015484061e-25  1.5227784283858100e-26  4.2055848346895730e-23  1.0775299575907550e-23  4.6961628043129959e-23  6.6270236929822687e-24  3.3459127545276944e-23  4.2325634437337095e-24  1.6553080587217924e-23  2.1295930555182572e-22  9.0320590265151602e-24  4.6237418256016947e-26  1.1794076118813615e-25  2.1258606037020803e-26  2.0713128152600935e-26  3.5309061458588069e-23  1.0638662817093933e-23  1.3238940443631912e-23  1.2545570225169360e-22  2.6170082874785836e-23  1.9358947878033848e-22  5.4351278391347735e-23  1.4485688542226166e-27  6.1104345197489136e-28  2.8916311017189994e-27  1.6611150538246761e-27  1.2192946330314936e-27  5.3755724811023082e-22  1.3211097678266806e-21  9.7751973468507014e-22  9.1504030146250879e-23  2.0175920533428292e-22  8.3249106824882214e-23  1.5814530481846277e-26  7.9125135508240794e-28  1.0962920003607923e-27  7.0433555076379691e-28  1.2812040843698094e-28  2.3809389688280764e-24  8.5444169077106447e-24  3.2853045101703278e-24  2.9346557599549013e-24  8.0311593723356412e-24  1.6368074856413577e-23  8.1653765562719528e-25  4.8927916546125879e-25  4.0982327019083833e-25  1.2463505981719465e-24  1.5259545637102914e-27  2.5963439454108281e-28  4.8337723820436376e-19  2.4186218658039968e-20  7.5815252437918421e-20  1.5998198798696989e-20  4.2693921393529060e-22  1.0645096341994014e-21  1.4434111953580034e-21  2.1597115828184807e-21  9.3658054053755847e-22  4.9968722721463216e-22  3.2427784034131953e-21  5.8198329502001919e-24  7.0025590969444476e-24  1.1171762781018194e-23  1.2271519232831511e-22  2.0992135708008342e-22  2.7051751667667212e-22  6.2202294493808670e-23  4.1556102350639445e-24  1.5384097648498408e-23  7.9377300219886643e-23  8.9677071062889859e-24  5.1767489704851742e-24  4.4968798405850340e-25  2.1107816694245941e-25  2.1515217923389561e-25  7.3579452885221583e-25  6.2933565436649671e-26  8.8840633610033801e-26  3.3066184589910802e-24  7.4618227378294945e-26  9.7246670561172001e-26  2.7704109961438914e-25  2.6668147395146021e-21  1.5952167427281774e-21  2.1511110609789861e-20  4.0848992660206681e-28  1.3739869370832751e-27  3.1504712167916659e-24  1.5882432305244947e-24  3.7390570108349894e-24  1.8948227494726474e-26  4.5839599362610435e-27  2.6847368238637559e-26  4.1553396016025415e-26  5.3071103018744791e-24  3.6074955167575055e-24  5.5056197909311100e-24  1.1474998927604644e-24  2.1396046741502281e-23  3.8921637847271712e-23  6.5727750157765270e-24  7.2844324080046188e-24  2.3518707863493578e-24  2.0754962397358764e-27  4.9874942293954724e-27  9.4140115293878561e-28  3.0476738821873664e-27  2.1861297563190988e-27  1.8850473848449858e-26  1.2403141322574410e-27  1.8856215851135823e-22  1.6200323737240173e-22  6.2532080145747553e-23  7.1924629892648219e-23  1.4306949678691113e-22  5.0609502804301824e-24  1.0490729896639696e-23  2.1260429113835462e-24  3.0259253417453072e-24  2.8785466336351326e-23  3.3786672591988677e-23  4.3137124256134905e-24  3.3506097805926603e-24  1.5987922937113165e-19  2.4382196811203106e-20  8.6818629115172513e-20  1.0465445434186039e-19  3.6832531415950545e-25  9.6419178966037753e-26  1.1742820142352964e-24  1.1584255648275965e-26  3.2368634284526411e-27  8.7151852449248114e-27  4.5459955410858145e-28  7.6788905263481798e-28  5.4915271866737491e-25  4.3316024861868983e-26  6.4956254268962188e-27  2.9282026390947711e-27  2.0080066555186326e-26  2.0948921082581084e-24  2.1700419329787458e-24  2.7057627926613252e-25  9.1860392788149154e-23  8.8438099149221834e-24  1.6701494404544126e-23  4.4251949755303369e-23  7.0416501143364909e-22  3.3966929011768975e-23  1.9999999999989253e-17  8.4707914045239643e-18  5.2741629880856207e-18  1.9999999999989253e-17  1.9999999999989253e-17  1.9999999999989253e-17  1.9999999999989253e-17  7.6071546082408487e-18  1.5773335147685523e-18  1.1213730679987668e-21  2.7077888971629672e-21  1.2217984771901763e-21  1.3746383048428677e-21  2.6641215320127887e-22  4.6975168189986668e-22  2.1225488843651672e-20  3.5221486931516385e-24  1.4436729563350363e-28  2.4150023983428199e-28  3.7106320578428230e-28  1.5779660895216771e-28  1.9204224484204758e-28  7.9999981521098083e-18  1.9999999999989253e-17  1.0920736665890817e-24  4.2977504455687629e-25  6.2644294070102221e-30  5.6492029526079708e-29  5.7053759123435233e-29  5.7819917435752951e-25  1.3919465493219806e-24  5.4511846409621528e-27  4.3593820785387775e-22  1.9442187672729612e-21  2.7239172955333090e-22  6.9464360682218661e-27  3.7565641930256678e-23  6.1594242497196603e-28  9.1208708532484805e-28  2.1399414276936181e-28  7.5379080024761763e-29  1.3744196146770213e-27  6.6407918987653491e-28  2.0628540933676047e-18  2.6997662011357155e-22  2.7591194141389762e-29  2.4877637498332875e-29  2.4122005466786775e-29  1.1695800486487947e-19  1.1045972793104843e-22  1.9039969231232849e-23  1.1065880366481939e-22  6.7413429106747366e-22  3.7775384350682696e-23  1.5828040890643354e-18  2.2270081301177473e-18  6.7556733222711022e-22  2.4681545668415651e-23  2.6020789456186578e-23  1.7410637912539998e-28  6.4574007783846360e-28  9.5378828945450764e-29  3.9708114458147426e-23  5.3662741353567306e-23  5.3963462197657836e-23  1.1823642269871424e-23  4.0326001174812492e-24  2.9939117827510747e-23  4.6752066806173049e-24  1.0464037257645328e-18  4.3456119234733271e-26  6.9236549834491344e-27  1.5289720599916570e-22  8.1506470082767697e-22  2.6252776491341035e-22  9.9679635976372485e-30  2.5952297536973161e-25  1.0664934683460851e-24  2.5684106631047949e-23  8.1400652751062475e-23  1.2821295136434207e-24  2.6096805002613450e-24  1.0003872210764780e-24  1.0378259251676086e-24  8.0581178273280369e-24  1.1075065262032969e-18  2.3026523572667755e-18  1.2570067176775067e-18  5.4971795073335504e-19  5.7662053323220889e-29  6.4168655799980753e-28  2.3959491818249362e-28  2.9250040066491015e-25  1.1039489975818120e-24  9.7164923228680170e-25  1.1529743815025815e-25  1.1999510158541990e-25  7.1290438114370332e-25  1.5612192220142047e-24  6.4552090855950359e-27  1.4376592662350395e-27  4.0219129507430607e-24  2.7688039879806082e-24  1.5735313614343692e-29  7.0736885978193527e-21  2.0374616696391731e-23  4.8081452125969287e-24  3.5240650207476204e-23  3.2047697656722525e-23  3.6155462325385078e-23  1.4537389447529586e-22  1.0769376588348648e-19  1.9228279213421636e-24  5.5103675805053120e-25  4.9233389259455867e-23  2.2962700307543487e-27  2.1549773662775884e-19  2.6838171826093139e-19  1.3039471308166678e-19  1.5449854455872312e-19  1.2412093392062929e-28  4.7998895877389399e-23  2.1987640913282558e-23  3.4744178898909987e-23  6.3000584463439168e-29  7.5227064632718897e-28  2.9939363973139441e-28  2.1854079017603801e-28  4.3546112191347442e-23  6.3885423667428997e-23  8.8473137232649311e-24  3.7934532596219487e-23  8.9838518028216547e-23  9.7392928907228407e-26  5.4701662154389772e-28  5.1323332172045760e-29  6.0066835605215839e-28  3.3830612717487315e-26  5.4346535181051561e-25  8.4737288300773458e-24  1.4343360197642719e-23  1.4812397832205907e-23  4.4305697557856352e-24  6.0594195989400727e-28  6.9103370669576275e-28  1.4421617469717152e-26  6.3438438726917983e-24  3.8888290294740341e-28  3.8017769213540100e-20  6.5779740713420221e-20  3.1466441142430301e-28  2.5614284720513614e-21  2.0197711379491018e-22  4.3118293772966901e-22  1.2457379120816734e-21  1.4028474249008183e-22  9.5017904516466049e-23  3.8661660711556950e-22  3.7983985159132025e-22  1.8978770964648031e-22  3.0840663839912383e-20  1.8066154405117834e-20  2.2424124909779106e-19  2.2988664658445536e-20  1.2003389514536617e-27  2.6527187129555346e-27  1.2799256048472951e-27  6.4257628115095728e-23  2.8391161255259209e-21  1.2123632821633922e-21  2.8462857791926425e-22  7.6927390745634467e-22  2.9225384297879914e-22  2.1997942006594519e-22  4.1174047521080017e-22  7.9142337685928815e-22  1.1344338380590716e-21  2.2722996772331637e-27  2.4123092042081341e-29  4.1479869442833172e-20  8.1349502209655737e-21  1.3809615465981534e-20  1.0030993279799201e-20  7.9407941998702183e-23  4.8823781307522523e-23  9.2518809691544432e-23  1.1556066897215144e-22  1.6220129695925905e-28  8.4522534887697428e-29  1.3265201780038181e-28  4.2689259245039965e-23  4.2472766294641418e-21  1.4257968070935156e-20  1.3653145629550799e-21  2.8313820265644336e-21  2.0177517187218842e-21  9.9501544793552635e-21  7.1395994193328935e-20  2.5817929232872386e-20  1.0003685900549904e-20  3.4464593390651822e-23  2.0250060062855123e-23  1.7392175786331636e-22  1.1420844281052265e-21  2.5574597791661684e-18  5.1385088292572937e-21  1.3784290633884264e-28  1.0079758560964671e-23  2.4911909600508583e-24  4.8548074775763727e-24  2.0476879356308815e-24  6.7563662150644321e-21  1.6398953393421524e-26  4.0598670240442822e-27  3.4969924842118175e-23  1.3055879751383953e-27  3.5465825448524546e-27  8.1313761648234725e-27  2.0156230610751945e-23  8.1458819465046661e-23  1.9999999999989253e-17  2.7135474252702440e-18  2.1379553167623646e-18  1.9999999999989253e-17  4.7663174568932077e-26  7.6710760950547845e-24  4.9575019212388235e-22  1.9999999999989253e-17  4.6565676228118305e-25  7.2081940551534956e-22  6.6746988649873336e-28  5.4949201605889920e-26  7.6969845896837632e-28  7.3491413498237049e-25  2.1009515319428551e-21  5.1803501582488045e-26  1.2286415629780845e-24  3.8989534812085367e-26  2.7125706493670520e-26  2.9100800704854783e-24  2.4222249240313103e-24  2.6759487329181323e-24  7.6159178476126469e-25  5.8824118708846853e-25  1.8534070204778097e-25  2.1521267939004281e-24  3.0932890741595947e-24  5.2603734777521265e-24  2.1151813322553376e-24  1.3891419667818615e-24  1.0058599888210666e-25  9.6307070020986566e-26  5.8759664435646448e-26  1.5763367255119138e-26  4.9711682414169568e-27  4.3922195695897187e-27  5.5828034106378660e-26  1.2039324202120778e-26  2.9856144694743546e-26  1.8006864057308164e-22  3.8289378600128278e-23  7.6542769092534368e-23  1.4591276048953361e-23  4.3192506544684009e-23  7.9672877566123184e-23  7.1797458261932266e-22  2.6477510505385925e-22  7.8323623922961158e-22  3.1310635617336266e-23  4.8180857492254066e-21  1.5710997525250576e-20  5.0946261268336130e-21  1.4824596038374087e-20  5.2529663030151696e-21  5.6866183048336654e-20  4.2253882943353597e-20  4.5647327600749700e-19  1.6900446208285109e-19  4.8612258236560095e-20  1.5532274548082850e-24  9.0182249896234312e-25  7.1723310778986002e-25  2.9663760026987124e-25  6.4536887027775049e-25  5.4125999821210423e-25  5.7313835163195010e-25  2.9472858973454911e-25  2.0469888138416083e-24  8.1088251192339043e-24  3.3866757814253898e-27  1.7190807265418629e-28  2.6974068013015783e-28  1.1930679986097370e-27  1.9999999999989253e-17  7.1056073944113462e-19  1.4328169605671053e-18  8.8658912589748982e-18  9.7171822305419623e-18  8.3287471902415414e-18  1.2181525361507840e-18  1.5567936103892665e-18  8.0900717178544351e-19  1.0451092932221927e-18  4.7640268388416681e-25  7.7639531759038785e-25  7.4665940513309828e-25  1.4710800743264770e-25  1.9076741188286751e-25  5.5289206348004792e-25  3.1028145792653149e-25  8.6065382266095366e-25  7.1559947624284680e-25  1.1505167279092718e-23  6.2473213794550478e-24  3.5926867831422105e-24  2.3702024685885725e-24  3.6908913658974307e-24  1.6512183131902211e-23  1.1997574687415984e-23  1.9607941717691087e-24  1.3816002849991161e-24  1.5856225545496263e-24  2.2125223689885289e-23  5.6650688445021009e-23  6.5844697038666135e-23  2.0683541802414504e-23  2.5814530058059680e-23  8.4815137666502288e-23  6.5175550406350887e-24  8.9044958546973729e-24  9.2799933745254747e-24  3.3093748387382415e-22  1.1566354054947726e-22  7.0579573005511053e-20  1.7908653737035097e-19  7.7837256212803034e-20  9.6073890698249904e-20  4.2085173718868585e-20  5.8694268415223753e-19  3.7843799910056629e-19  8.9085480662543895e-19  3.1143858321047036e-19  7.9297963478282824e-19  5.4253149678608087e-20  1.2547079838994647e-19  6.0823525139655439e-19  3.9687109242445462e-20  3.2950791518320148e-19  1.6598197659466197e-19  1.3779953045472749e-19  1.3208146859940443e-18  8.5376929954931156e-20  4.2231749355692152e-20  7.3807574954694847e-20  7.4582573075035202e-20  4.1335515296894410e-20  1.3270989036392952e-20  3.0948286242542443e-20  6.7588963181358838e-20  3.8240475998528396e-20  7.3189179186497910e-20  7.7598195300071033e-19  4.2114839383857436e-23  3.4269802202177520e-23  1.1556848961935003e-22  9.9580587448384636e-24  1.4706571017319896e-23  5.1072465738938890e-23  1.1586452066363156e-23  4.7313737739543772e-24  1.4729933715589201e-24  8.5214782145956968e-24  5.6438286462480146e-25  8.3643921312823743e-25  1.4895461950362713e-24  2.3504887024781080e-25  1.1732752095269092e-24  4.3825888367844747e-24  6.9913613307523248e-23  1.9999999999989253e-17  6.7536328174969056e-19  7.3805926326784498e-18  6.7872969969442240e-18  7.7266410499541024e-18  4.4038157275635342e-19  1.0998384901659825e-18  1.0043059833304212e-18  2.1668622501043195e-18  1.9999999999989253e-17  7.3605864089204237e-18  1.9999999999989253e-17  1.9999999999989253e-17  1.9999999999989253e-17  2.3693906130083771e-18  1.2052841323026943e-18  1.9999999999989253e-17  1.9999999999989253e-17  5.1234803512058673e-19  5.4121014140657845e-23  2.8272074555903923e-22  4.3337151908663894e-23  3.9544008213410136e-23  3.0472141269145058e-23  7.1152445999062660e-23  4.8866950233181528e-23  4.8161558607936511e-23  7.3374667964563847e-22  2.0497073473331937e-21  3.2697017316952764e-21  2.4056940429243988e-21  5.2263569031383224e-21  6.0491495807513125e-22  1.6434294488950379e-21  1.6300913421823262e-21  2.5739734890736984e-20  9.0313678705141431e-21  4.5989334427666460e-20  4.1738943554695077e-21  2.6973783587048090e-20  4.8610812042729860e-20  6.5782229828536115e-21  7.0798360586946