<?xml version="1.0"?>
<VTKFile type="UnstructuredGrid"  version="0.1"  >
<UnstructuredGrid>
<Piece  NumberOfPoints="7354" NumberOfCells="33355">
<Points>
<DataArray  type="Float64"  NumberOfComponents="3"  format="ascii">1.105514392116258 32.09764214322267 7.171679794949781  0.8530810078481144 31.83699218252408 6.491889857123258  0.9010255646804333 32.29296494497851 6.730398012552074  1.278918510572334 32.18136280245704 6.236390472371682  0.6965367372446084 32.48828774673435 6.289116230154367  2.902076959609985 34.07950973510742 7.844180107116699  2.499376680887183 34.3073553549563 7.05885270433757  2.448599722421607 34.02206940524927 7.230629237464401  2.449362185037574 34.31108994357935 7.576687844565841  2.952091455459595 34.07577514648438 7.326344966888428  2.901314496994019 33.79048919677734 7.498121500015259  2.900552034378052 33.50146865844727 7.152062892913818  2.951328992843628 33.7867546081543 6.980286359786987  3.002105951309204 34.07204055786133 6.808509826660156  1.996647410465162 34.54267015205128 7.309195582014984  1.091303372286894 35.783915098731 5.561391522229722  1.473800943773357 34.97979927444473 5.631781654846047  1.47241125821448 35.31802998059906 5.170522729869285  1.005803958410955 35.26047793126703 5.427775433367406  1.559300357649297 35.5032364419087 5.765397743708363  2.027297343011699 35.22255778508639 5.969403965187002  1.940408243576882 35.03735132377675 5.374528951347925  0.9203045445350155 34.73704076380307 5.294159344505092  1.386911844338541 34.7945928131351 5.03690664100697  1.853519144142066 34.85214486246712 4.779653937508848  1.06362630415793 34.6810920213043 3.873940480189737  1.444769395980354 33.73488194444342 3.762201000082074  0.959289331162858 33.68257161885777 4.092949162331006  1.508427026078322 34.29289594654701 4.004742627350468  0.9999686740599616 34.12307801920071 3.631398852921343  1.022946961260826 34.24058562096136 4.3354907895994  0.9363110439619932 33.56506401709712 3.388857225652949  0.9822676183637228 33.80007922061842 4.797041099009062  1.467747683181218 33.85238954620407 4.46629293676013  1.953227747998714 33.90469987178972 4.135544774511199  1.66831954289453 34.32607416217866 6.370452403894904  1.573637401855859 34.40522921594156 5.939491985304887  1.518800994498176 35.0039435724514 6.201467636747414  2.176815891408053 34.54468837481363 6.138388732334493  2.082133750369382 34.62384342857654 5.707428313744476  2.136970157727065 34.02512907206668 5.445452662301949  2.231652298765736 33.94597401830379 5.876413080891965  2.326334439804407 33.86681896454088 6.307373499481982  1.010304645984652 34.78532935981643 6.433531308307826  3.012763977050781 34.64199829101562 6.187815189361572  2.486634073309333 34.577149268089 5.436431394017186  2.574867067388923 34.33356368154115 5.816633925831761  3.051808953285217 34.5382194519043 5.71486759185791  2.924530982971191 34.88558387756348 5.807612657546997  2.836297988891602 35.12916946411133 5.427410125732422  2.963575959205627 34.78180503845215 5.334665060043335  3.090853929519653 34.43444061279297 5.241919994354248  2.613912043623359 34.22978484242982 5.343686328328099  2.669549208427594 34.25440862777825 6.247594344421778  3.045477986335754 34.28949928283691 6.026978015899658  3.078191995620728 33.9370002746582 5.866140842437744  2.702263217712567 33.90190961959954 6.086757170959864  2.607581076673896 33.98106467336244 5.655796752369847  0.09939099848270416 32.53108978271484 5.126680850982666  0.5792782163871446 31.94526762906073 5.192808946230741  0.4797970028398955 32.28839400568244 4.732124876605939  0.09939099848270416 32.06991481781006 4.949229001998901  0.09939099848270416 31.60873985290527 4.771777153015137  0.09939099848270416 35.387451171875 4.530872821807861  0.5825073933720664 35.89309459067915 3.907608420140419  0.5825073933720664 35.6246352706108 4.418952376134071  0.09939099848270416 35.80926132202148 4.456793308258057  0.09939099848270416 35.65591049194336 4.019528865814209  0.09939099848270416 36.23107147216797 4.382713794708252  0.5825073933720664 36.04644542075728 4.344872862584266  0.09939099848270416 36.07772064208984 3.945449352264404  0.09939099848270416 35.92436981201172 3.508184909820557  1.065623788261429 35.86181936934659 4.307031930460281  2.198482036590576 32.16184997558594 7.468702793121338  1.530456729745481 32.47901616845896 6.797461849136706  2.07694055198264 32.51112008464059 6.945973348222485  2.029891160245318 32.01814391688283 6.826183753855168  1.955399067374703 32.86039019369525 6.423243903323632  1.908349675637381 32.36741402593749 6.303454308956315  0.09939099848270416 32.72639846801758 2.929707050323486  0.7997125089168549 32.75383949279785 2.481034517288208  0.6989989951252937 32.8315486907959 2.801627993583679  0.4553980007767677 32.47336959838867 2.716001033782959  0.4437055066227913 33.00686836242676 2.694740533828735  0.7880200147628784 33.28733825683594 2.459774017333984  1.043313503265381 33.11201858520508 2.566661477088928  0.8114050030708313 32.22034072875977 2.502295017242432  1.055005997419357 32.57851982116699 2.587921977043152  1.298606991767883 32.93669891357422 2.673548936843872  3.567260980606079 32.79111099243164 4.840610980987549  3.633081912994385 32.90501594543457 4.253295421600342  3.436282515525818 33.00930023193359 4.331360459327698  3.575887441635132 32.65746116638184 4.467350959777832  3.624455451965332 33.03866577148438 4.626555442810059  3.681649923324585 33.28622055053711 4.412499904632568  3.493476986885071 33.25685501098633 4.117304921150208  3.584513902664185 32.52381134033203 4.094090938568115  3.444908976554871 32.87565040588379 3.958100438117981  3.305304050445557 33.22748947143555 3.822109937667847  0.09939099848270416 34.64038848876953 5.887335777282715  0.9653045952598338 34.76118506180975 5.863845326406459  0.5548478222336781 35.01654506626075 5.982290041513532  0.5548478222336781 34.71285892429298 6.16043354279527  0.5098477715088598 34.6887146262863 5.590747560893903  0.09939099848270416 34.9440746307373 5.709192276000977  0.09939099848270416 35.24776077270508 5.531048774719238  0.5098477715088598 34.99240076825407 5.412604059612165  2.590676069259644 33.28599166870117 3.285427093505859  1.877553270580608 33.29083763441963 3.904088660076344  2.271951908629179 33.59534577024544 3.710485934008529  2.539122722203251 33.24908844166644 3.908111635067859  2.196277431211073 32.98148353287536 3.479029819573674  2.487569375146858 33.21218521463171 4.530796176629859  2.220398561572786 33.55844254321072 4.333170475570529  2.14472408415468 32.94458030584062 4.101714361135675  1.801878793162503 32.67697539704954 3.67263254564149  2.363302946090698 35.50106048583984 4.678164958953857  2.108411045116382 35.17660267415349 4.728909448231352  1.714463367176063 35.68143992759322 4.492598444707069  1.727303159188796 35.64248779228542 5.11977824059179  1.078463580274161 35.8228672340388 4.934211726345001  1.459571466201747 35.35698211590686 4.543342933984564  0.09939099848270416 34.32110977172852 4.831868171691895  0.9919654243464728 34.70906639255369 4.584049912347415  0.5098477715088598 35.06224596783903 4.912516083156476  0.5098477715088598 34.52907526776579 5.063013758098493  0.09939099848270416 34.85428047180176 4.681370496749878  0.5815086513203171 34.50110089651641 4.352904325940816  0.5815086513203171 35.03427159658965 4.2024066509988  2.238049983978271 34.9671516418457 3.932027101516724  1.590341694597581 34.46913182608183 3.590276247480123  2.095638865988493 34.43592575681771 4.033785938013962  1.650838144068101 34.824121831575 3.902983790853231  2.177553534507751 34.61216163635254 3.619319558143616  2.117057085037231 34.25717163085938 3.306612014770508  2.035142416517973 34.08093575132455 3.721078394640853  1.334221959114075 34.5128288269043 2.75650691986084  0.8753181471866158 34.70671117178496 3.226454740979879  1.083819840435972 34.97337501033818 3.059112719662056  1.198924131636002 34.5969604241043 3.315223700025289  1.010615974664688 34.62257957458496 2.66773796081543  0.6870099902153015 34.73233032226562 2.57896900177002  0.7602138559865858 35.08312575801884 2.970343760616646  0.9485220129579001 35.05750660753819 3.617829499826505  0.83341772175787 35.43392119377206 3.361718519463273  1.503476028224907 34.66399975593386 6.871363445161405  1.514643479113694 34.11859040674727 6.777654061051461  2.161490925134784 34.20474455829608 6.808284540748483  1.032639547762226 33.69451066144326 6.246112540087938  1.021472096873439 34.23992001062985 6.339821924197881  1.679486993783317 33.78066481299207 6.27674301978496  0.992964166398222 35.29943006657483 4.800595637482687  2.948282957077026 32.48699951171875 6.179423809051514  2.451841012225865 32.673694852707 6.301333856187573  2.404791620488543 32.18071868494924 6.181544261820256  2.331269994960545 32.30519986521921 6.583441924653759  0.09939099848270416 32.08287811279297 6.579380989074707  0.3979638678636563 32.28558292976366 6.434248609614537  0.6024526952994812 32.09026012800782 6.875530392012244  2.133388042449951 33.37921905517578 8.405776023864746  2.45058146885621 33.73410048501816 7.524520435925937  2.066237010276192 33.38395514505234 7.80531839429996  2.311418533325195 33.23349952697754 8.017425060272217  2.517732501029968 33.7293643951416 8.124978065490723  2.695762991905212 33.58364486694336 7.736627101898193  2.489449024200439 33.0877799987793 7.629074096679688  2.244267501151437 33.2382356168541 7.416967430707431  1.999085978102434 33.3886912349289 7.204860764735175  2.854880817405903 32.46696561519642 5.463533596412123  3.189294457435608 32.64243507385254 5.507204532623291  2.718983300201619 32.61726087276478 5.837136463538588  3.084180474281311 32.33670425415039 5.805820941925049  3.053396940231323 32.7927303314209 5.880807399749756  3.15851092338562 33.09846115112305 5.582190990447998  2.824097283355916 32.92299169246693 5.53852005423683  3.220077991485596 32.18640899658203 5.432218074798584  2.489683643326211 32.74752223381081 5.494849118025662  2.011972376738431 34.8826139685688
[...]
<PointData  Scalars="c_HbO2"> 
<DataArray  type="Float64"  Name="c_HbO2"  format="ascii">6.9750264158988361e-19  1.4506101413159014e-18  5.3309211719929479e-19  2.3739617546018523e-19  1.5481056396902113e-18  4.6903286978495623e-21  3.6988757095124541e-21  5.4327342674329287e-21  7.3325810722843531e-21  1.1810353379241376e-21  1.7216489102937310e-21  3.1872620098284391e-21  1.8073148518997299e-21  3.6635503775405800e-21  8.1604131067470807e-20  1.2660035551750927e-18  3.0333586081713986e-19  3.2772781424040891e-19  6.9376061156304002e-19  1.4907640840815851e-19  7.9246596286426201e-20  3.7979386042444748e-20  1.9488240043343418e-18  2.4652110534161608e-19  1.2296856813220667e-19  1.3804604929697497e-18  1.4797323949979466e-19  1.4393255123116684e-18  2.3299349010505138e-19  6.9174568676548844e-19  9.6066075100432751e-19  1.2105297686269126e-18  1.8258142173323396e-18  3.0707946655431135e-19  9.5837232083019759e-20  9.1670235435573811e-20  1.9964081516675377e-19  1.3618418715040254e-19  1.5055016668727377e-20  2.1324115174580403e-20  7.8459074101232594e-20  1.5842456999954347e-20  3.2451683974198655e-20  1.1976895587192695e-18  4.1947553981133921e-21  8.3989787277264637e-21  8.4324484695108106e-21  1.9280393615360432e-21  2.0372663536251746e-21  5.2397933618113295e-21  9.3386046580706201e-22  2.5098660326819097e-21  2.5872572987581383e-21  3.1285672815591165e-21  1.8185444182222446e-21  2.3236664176002017e-21  1.7515279422846232e-21  4.1937642715948575e-21  1.9999999999989253e-17  7.6470313412075309e-18  9.3132491634068048e-18  1.9999999999989253e-17  1.9999999999989253e-17  1.9999999999989253e-17  9.0077535719751000e-18  2.7487565246844970e-18  1.9999999999989253e-17  1.9999999999989253e-17  1.9999999999989253e-17  1.7330723377338752e-18  1.9999999999989253e-17  1.9999999999989253e-17  1.2560874506248055e-18  2.3658943218825381e-20  1.1259529764519329e-19  1.0739753346273924e-20  2.7004254765968946e-20  6.0318603080058165e-20  5.4427568418299533e-20  1.9999999999989253e-17  9.7402186642364549e-19  1.0171778479633117e-18  2.6483733918898677e-18  2.3912245196398043e-18  1.4899622864892035e-18  4.8194273741945577e-19  1.1434878371694934e-18  1.7419271973081340e-19  6.8285105105605268e-19  5.0627031287093069e-22  1.7987294478053135e-22  1.7228655814716935e-22  1.0510972550311724e-22  8.6418129100265892e-23  1.2252010135174767e-22  1.2863877102690414e-22  2.3624643548293448e-22  1.7081639678707654e-22  1.5649806694826752e-21  1.9999999999989253e-17  9.2036647619770772e-19  5.8113071105977262e-18  1.2965130197962433e-17  1.1340434905449474e-17  1.9999999999989253e-17  1.9999999999989253e-17  2.6011649424161116e-18  7.2532410993095537e-21  4.8759627702368885e-20  9.3469228471103122e-21  7.8438937954210506e-21  9.1839836859459986e-21  1.7943556219636808e-20  2.3864861995087278e-20  9.4136703092422837e-21  8.3494407124471117e-20  1.6461874285206695e-20  1.6890089051253496e-20  4.1214488902857245e-20  8.8328223905010655e-20  6.3399082119667881e-19  1.6938939846264309e-19  1.9999999999989253e-17  2.2215101978665310e-18  1.0744343821183867e-17  5.0077410409785499e-18  1.9999999999989253e-17  1.3002561533295431e-17  2.3430513919846467e-18  2.7454740496308456e-20  8.7412183711807982e-20  1.3130916299431985e-20  6.1818574735038056e-20  1.1277931630957829e-20  3.8409551320333121e-20  1.7894911841527382e-20  7.2774491102924626e-19  7.6908488736344197e-19  3.3822441105192593e-19  4.9938477928137968e-19  4.4069521701833463e-19  1.5624077290244575e-18  7.8474324762065802e-19  5.4124948899386269e-19  1.4072991189913045e-18  1.0084431008683881e-19  1.9184824052265891e-19  1.7527002966874496e-20  9.7152842358076587e-19  5.9615922832551634e-19  5.2870359315292459e-20  7.3929271631299665e-19  4.0173976529943456e-21  8.5100700061405274e-21  9.6140565172059233e-21  8.0730226467819468e-21  1.9999999999989253e-17  2.9102643000635689e-18  2.3175611082447671e-18  1.9239601189810664e-20  8.6479464766408516e-21  9.5199172384897640e-21  5.1500754994956317e-21  2.4819142527232419e-21  1.3960808639654706e-21  4.5662826956287339e-21  3.9295696187601115e-21  4.7563603607790795e-20  1.7662342227407471e-21  1.5324495081165401e-21  3.1975234570737205e-21  1.7268161070130163e-21  1.5077449774566344e-21  2.3823522439067652e-21  1.8863390969915293e-21  1.5191109028761116e-21  3.0309985137691696e-20  3.6040882238447736e-20  2.5323193093046295e-20  1.7266928523595332e-20  8.5848598959679365e-20  6.9672841648014126e-20  6.9977032163803518e-18  1.9999999999989253e-17  2.4532761584124457e-18  4.1456216172731916e-21  1.4748865616791009e-21  6.4221424177191098e-22  3.4880936507247614e-22  2.3916927276212563e-22  3.8552370506771679e-21  6.2000379911756214e-20  5.7003879687539911e-19  1.4245858159650142e-19  6.3006532356111640e-20  1.6641418055732366e-19  1.7038591017788390e-19  4.5005916024857557e-19  5.3613723598582679e-19  1.8018786509124924e-19  1.1419960796343508e-19  1.8804201130994308e-19  1.5788107068429577e-19  1.4917908604926785e-18  1.9999999999989253e-17  2.6724090872773222e-18  1.6709449703120236e-18  7.0847943925684967e-18  1.9999999999989253e-17  1.9999999999989253e-17  1.9999999999989253e-17  8.0244822901985573e-18  1.0884103796482447e-18  3.2222869491040270e-21  5.1600885791354239e-22  1.2333066479411623e-21  5.3155614133756869e-21  6.1388594864452699e-21  4.0577037924182442e-21  8.3569617102110475e-20  7.2179216721899818e-21  1.3055431086722987e-20  1.0415251823090761e-20  1.9716262055209440e-18  4.4165983326422130e-18  9.1939127453347569e-22  7.4292080744939258e-22  4.2531040187012179e-22  5.2703092544272056e-22  3.1996962604684910e-21  6.2311074495704848e-19  1.9199860421680954e-19  1.3350182305235942e-19  7.7787651893710413e-20  1.9032650626639537e-19  4.3695462600239185e-20  1.0166891306862738e-20  7.0409711055642640e-21  2.8767672786877415e-19  2.1626763879907150e-20  1.5189575101773899e-19  3.3872900815630275e-20  4.8662465936518824e-20  6.6874010109017782e-21  2.9030495741783379e-21  2.4888006416263151e-21  1.0264104113746942e-21  2.9672531977360358e-21  2.3561442041854332e-21  1.2841704015085203e-20  2.0419453839782213e-20  7.4707552442130890e-21  2.7462457051907206e-21  9.5177464662227654e-21  5.8568359401532681e-21  5.1583456760148612e-21  6.8378066793555097e-22  8.8422039683501785e-22  7.0067799929027579e-22  9.9074745207111155e-21  1.9999999999989253e-17  5.8469910245807652e-18  1.9999999999989253e-17  1.9999999999989253e-17  1.9999999999989253e-17  6.9345618510898887e-18  7.8924223254359026e-18  1.9999999999989253e-17  1.9999999999989253e-17  1.8018165659334967e-18  8.9489846326152912e-20  1.9999999999989253e-17  4.5087242091945541e-18  2.4636301552103357e-18  2.7457505322061447e-18  6.9818297764422553e-18  1.9999999999989253e-17  1.9999999999989253e-17  2.5296724738358574e-20  2.8087116547566220e-20  1.6465095609759676e-20  1.1430618743660669e-20  2.2550518740587219e-21  4.1867084433635850e-21  4.0622043377071782e-21  4.1515458839918390e-21  1.5911297602466230e-20  1.3569884347858256e-19  6.2420178343855001e-19  9.6256632779742645e-20  1.5312743913688121e-18  2.2199761104167805e-19  2.1409915964732750e-19  3.6677649487482394e-21  1.2755769817816299e-21  1.0294214054898620e-21  1.0072748412652703e-21  4.4377189855134265e-21  5.5022909838828910e-21  7.8001026558740133e-21  1.9471373409800950e-21  2.1791460566817848e-21  1.4349803555554235e-20  2.1273567488801998e-21  6.2721804737557141e-21  4.4378370122071280e-21  7.3874311145169385e-22  1.9999999999989253e-17  1.3448938467824429e-18  8.5129040359906688e-19  9.7539735258192977e-18  2.2671544971297354e-18  1.0332917643301669e-17  1.0320303209056335e-18  6.2601177166041921e-19  6.7951581504728905e-20  2.3171783549472219e-19  1.9999999999989253e-17  1.4696348667472245e-18  7.7416477905669439e-18  1.9999999999989253e-17  8.7722586743894699e-18  9.0098695141746152e-18  1.9999999999989253e-17  8.3282689285659984e-18  8.2351980156842574e-18  2.0686752067774896e-18  1.9999999999989253e-17  1.9999999999989253e-17  1.9999999999989253e-17  1.9999999999989253e-17  1.4623760976148195e-19  1.1288722299592661e-20  3.0248066061117767e-20  5.1902100920493641e-21  1.9999999999989253e-17  1.9999999999989253e-17  1.9999999999989253e-17  1.6270508041874722e-18  1.9999999999989253e-17  1.5305766099106428e-18  8.4661280013758029e-19  1.8565568895686806e-19  4.0821479610587549e-19  6.4432008078002391e-19  1.6178805749479282e-20  8.3737023296534739e-20  6.6029399787673100e-20  2.7043632255698354e-19  4.3371433565131604e-21  1.9999999999989253e-17  2.0484156491372664e-18  9.4154452670727833e-18  1.0677438602483096e-18  1.9999999999989253e-17  1.9999999999989253e-17  9.6539804507937787e-18  1.5176792668222815e-21  8.5475562262287009e-22  1.1607486652463846e-21  1.9999999999989253e-17  7.4663755473447472e-19  3.0647211401563517e-18  8.1426970233961605e-18  2.8300805827844227e-18  5.6185489236379770e-19  3.0878793110649784e-21  1.2094703634302212e-21  2.1782499781470010e-21  2.6863956814708392e-20  5.3859678305172984e-20  2.1800596868213719e-20  1.2716963352041414e-20  2.3184934475574799e-19  4.4245933698090101e-19  3.7685241574739190e-19  1.0423694516678405e-18  3.1754289212846977e-19  1.4610513459565540e-18  1.9999999999989253e-17  1.9999999999989253e-17  1.9999999999989253e-17  5.6994619116488871e-18  1.6394511351993015e-18  3.6038821130829766e-18  2.8971759533307393e-18  1.5954487583628095e-18  1.9999999999989253e-17  1.9999999999989253e-17  1.5310141933365735e-18  3.7130818928319629e-19  1.0737940115340236e-18  6.6472328629070954e-19  2.0242264063113896e-18  4.5304423701998626e-19  5.3904835482269137e-19  7.2355351078520934e-18  1.9999999999989253e-17  3.5128893821783722e-21  1.7034067497705136e-21  1.2499652822703261e-21  5.4658929058165269e-21  8.6936349670696891e-21  3.1359730940912145e-21  3.9195847602791068e-21  6.6680834613568068e-20  4.6840672404964806e-20  6.0852024387668806e-21  3.1041824311366487e-20  1.0774648444051473e-20  1.9999999999989253e-17  1.9999999999989253e-17  1.6459600954180217e-18  1.9999999999989253e-17  1.6313767865616807e-21  6.1849337166328679e-18  1.9999999999989253e-17  1.9999999999989253e-17  1.4974838613991087e-17  1.8573359524623481e-18  2.5018063220583901e-19  3.7602757599591470e-20  8.2734472713352055e-22  2.8910961669672964e-22  5.1547885675133564e-22  4.2866345077982643e-22  7.5073568912898715e-22  9.1748937090178220e-19  7.1102467891227789e-19  6.7063685421688524e-18  1.8218065076507179e-18  1.2714229887280374e-18  6.7527114508929592e-19  1.5866758274940354e-20  1.9999999999989253e-17  2.6568590971546836e-18  9.5616823905199952e-18  1.4931416348859859e-18  1.9999999999989253e-17  1.9999999999989253e-17  1.0544946849749707e-18  1.4385239338091477e-20  1.6515326080739109e-20  8.1832894277841946e-21  1.8712997745240421e-21  1.1569250480762701e-20  2.0725770973786249e-21  3.6966778480805581e-21  1.6423953062738085e-20  5.7978380042790691e-19  5.9045192587422262e-19  2.8575122020008127e-19  1.5732911757418089e-18  3.5516021021732711e-20  2.7166310895190771e-20  1.0516310864318955e-19  1.6838550095912231e-19  5.8112746765921922e-18  7.8802978830205072e-18  1.9999999999989253e-17  1.9999999999989253e-17  6.2008306017502781e-20  1.8311615517779633e-19  2.5149783233356050e-20  5.4414462459612468e-20  4.2737058066206490e-22  1.5052573808931829e-22  8.1462512636223409e-22  7.2576529598720190e-22  2.2355320440487319e-19  3.2949535806677052e-19  1.9346017625802074e-20  6.7993754693971457e-20  9.3850976493590719e-18  2.0960847089540280e-18  1.9999999999989253e-17  8.2450715115846479e-19  6.2689640456625875e-21  1.7589382279462881e-21  1.3812074231066722e-21  6.6914344155486789e-18  1.9999999999989253e-17  1.2288088193092239e-18  9.7343396505059798e-21  9.7452827266608095e-21  4.5374386728822638e-21  9.6510912293048268e-19  6.3819019379854856e-19  2.2133381266344630e-19  1.9999999999989253e-17  1.4090380764452738e-19  4.0849499021851206e-20  1.9999999999989253e-17  7.2512323688645339e-18  8.3642780318755267e-18  3.4634306133821093e-21  7.3808244956789100e-21  1.3453928009807906e-21  1.7732221176846533e-21  8.0197616580440151e-18  9.8758827717667539e-21  1.2264555185374051e-21  1.1467063185690154e-18  8.8754598407176971e-19  1.9999999999989253e-17  1.0364262503048239e-18  1.9952797115760089e-18  6.8588059289058448e-18  1.9999999999989253e-17  1.9999999999989253e-17  9.4010948428939511e-20  1.0709552888438167e-19  9.5389291765602387e-20  3.5758808663215655e-19  1.7856286613199481e-19  1.3299665706318102e-19  2.6339040082513013e-19  9.7031500556914276e-20  2.6472074440991655e-19  2.1887335537530633e-19  5.3785063684061881e-19  2.6732379203428965e-19  2.6069154032872041e-21  8.2134790080058726e-22  9.4703067461157596e-20  1.5691856123306071e-19  3.5841383443831167e-19  1.4969290632426678e-19  1.4438897126318086e-19  2.9957643242441705e-19  6.7629002942739910e-19  9.5956785058247985e-19  2.6841217328132608e-18  1.8212119059251900e-18  1.9999999999989253e-17  1.9999999999989253e-17  2.4633450248133673e-18  2.2365235449665269e-18  8.2822563560225654e-19  3.0562625325238267e-18  1.9999999999989253e-17  1.9999999999989253e-17  3.2427425319430194e-20  1.9999999999989253e-17  1.3102327579710532e-19  4.0130891195348026e-20  5.4987551840442113e-20  6.8692777422147317e-19  9.5320781299928867e-19  7.7197736856752330e-19  3.9214160975933670e-19  1.9999999999989253e-17  5.3893817271886812e-21  4.2070959269090261e-19  1.9999999999989253e-17  1.9999999999989253e-17  1.9999999999989253e-17  1.9999999999989253e-17  8.6395344110843379e-21  1.5555029358575737e-20  2.0915638969225262e-19  3.4061712496668151e-18  7.7647615119127118e-18  1.9999999999989253e-17  3.3806698174376472e-22  1.5628423948275731e-22  1.9999999999989253e-17  1.7503745384589533e-20  2.7493768513798214e-19  2.4888164144060927e-20  6.3857374128918788e-19  1.8536245948313236e-18  1.6717053947590952e-19  9.3058258393352812e-20  1.5488614243182735e-20  6.0354976106250682e-20  1.8011616090921024e-19  1.0387618930162197e-19  6.0657432047357601e-21  1.3114124879332572e-19  2.9499041218244398e-20  2.9013985504574882e-20  5.4352802116796638e-20  8.3733725151955582e-19  5.5356099455444373e-19  1.8675297194358689e-18  1.1933903132251875e-18  4.3266425471493751e-19  1.4927879172169254e-18  5.9410216823329685e-20  8.4429536268216911e-18  8.9419257522027965e-18  1.9999999999989253e-17  1.9999999999989253e-17  2.7782673664505524e-18  1.1033127277047269e-21  1.1116508537330779e-21  1.5109540100209458e-21  4.5993622129108794e-22  8.8531758226141952e-23  1.2779023255167141e-21  7.2206949129068275e-21  1.5633426204628355e-20  1.1935888582897905e-21  6.7228381535724062e-21  1.0475780903567895e-20  9.1700106045441371e-23  3.6056344272253485e-22  9.9658715639788399e-19  1.1180494296252781e-21  4.7835223331227649e-22  7.8541215261683886e-19  1.9999999999989253e-17  1.9999999999989253e-17  1.9999999999989253e-17  1.3562472753483321e-17  1.9999999999989253e-17  5.5935010339970237e-18  1.5836880479322089e-18  8.7543337533125623e-18  3.1117321542782969e-19  1.3817283683781966e-21  1.9999999999989253e-17  1.9999999999989253e-17  1.9999999999989253e-17  3.2561390706414213e-19  1.9999999999989253e-17  6.2730406549301093e-18  1.9999999999989253e-17  2.1205833570097423e-18  2.1176314844381341e-20  1.9999999999989253e-17  1.1455965190532628e-19  7.8080984473964267e-20  1.3193160539802775e-19  4.4323641305634743e-19  8.3345444467264944e-19  2.2888511001118896e-20  1.6667294032892222e-19  6.5866632318953910e-20  1.2232670012254682e-19  7.4398539042316356e-20  2.6244841808578048e-21  1.1563884957803872e-21  1.3547116789824947e-18  6.1688798342854002e-20  1.8812448480517195e-19  2.6445589339028777e-20  9.2613896483498527e-18  7.1411063646654721e-20  2.8988990778241865e-19  1.9999999999989253e-17  1.0911230334425323e-22  2.7632389781588315e-22  7.5210946516010989e-22  1.9999999999989253e-17  1.9999999999989253e-17  1.9999999999989253e-17  1.9999999999989253e-17  2.2124801022978321e-19  1.9999999999989253e-17  1.9999999999989253e-17  2.4732850330432661e-22  2.0134085278514621e-21  8.4562410754487229e-22  7.1448162219559895e-18  1.9999999999989253e-17  1.9999999999989253e-17  6.1432560178066271e-20  3.8083010945085851e-21  9.3018519301431402e-22  1.0080074981773541e-20  1.6721014025146654e-20  3.2035481059500612e-20  1.6243710502203251e-20  1.8172695314467721e-21  1.3912415140569404e-20  7.3929916669442382e-21  1.6522295475594831e-20  5.9749773584639422e-20  1.0967770694587206e-20  1.9999999999989253e-17  1.9999999999989253e-17  6.2287577423056215e-22  4.8051430828543898e-22  1.5205437326830829e-20  5.9268132188942689e-21  6.6588744446986792e-21  7.9328300825170873e-20  1.4163097201671718e-20  1.9230288530089119e-20  1.4507205454712732e-20  7.6268367325978346e-21  1.5895683549243828e-20  1.2092029742358848e-20  1.2663302669017470e-20  5.9779898090165013e-20  8.1029535421505744e-20  1.9999999999989253e-17  1.1891782862885007e-17  2.6293006848441560e-18  2.0283398179047705e-18  1.9999999999989253e-17  1.9999999999989253e-17  1.9999999999989253e-17  1.9999999999989253e-17  1.9999999999989253e-17  1.5350085725789521e-18  4.0534738805291479e-32  2.3237789228259304e-32  3.0732439888216250e-32  6.0561624887285278e-32  6.2041967914106713e-32  6.8312818038795463e-31  5.3579054431744274e-31  4.8543078594423493e-31  1.9999999999989253e-17  7.7891717975461671e-18  8.0343185293871378e-18  1.9999999999989253e-17  1.9999999999989253e-17  1.9999999999989253e-17  1.4494571186073615e-18  1.9999999999989253e-17  1.9999999999989253e-17  5.4922229762331575e-19  1.9999999999989253e-17  3.0194597736014815e-18  1.7511383296641856e-18  1.9999999999989253e-17  1.2113733490152964e-18  1.0399700728895184e-18  3.1442449029310962e-19  1.9999999999989253e-17  1.5487870675456170e-18  1.4879149856803081e-18  1.9999999999989253e-17  9.9150212381189344e-18  1.9937545032875482e-18  1.9999999999989253e-17  1.9999999999989253e-17  1.9999999999989253e-17  1.5796670765416875e-18  1.9999999999989253e-17  1.9999999999989253e-17  5.7360231690511996e-19  6.1291989169227103e-22  3.6332599805549593e-23  4.3523153491632138e-22  1.3080531044901971e-22  1.8906542786584661e-22  1.4195270319653236e-23  7.5350600478201594e-23  7.9841756913961231e-22  9.5292391385230475e-23  2.1872060562438458e-23  1.8547471838533984e-22  4.6022213447044489e-22  2.5471516239971027e-22  3.9532787188543716e-22  1.2691259246192565e-22  1.9678871045906024e-22  4.8243680837813611e-22  5.5071283348004202e-22  5.5105893411463855e-22  3.1708139977594354e-21  3.1525825425600550e-28  1.2048239296568498e-28  1.3342903040624761e-28  4.7452742049051973e-28  3.9887262980112940e-27  1.0462874402555844e-28  7.2240255020640349e-28  2.2377197140599397e-28  1.2474214101260599e-28  3.3136270901236057e-28  6.6575418928183900e-30  3.5376234261760506e-29  1.9499818403637724e-29  7.0072922990145349e-30  2.2362132727446596e-29  6.0247003241135012e-29  1.0368949667608409e-29  3.2747122962914558e-29  1.3266261541004024e-28  9.2197291251575231e-29  4.0784222785457976e-28  1.7480119023678349e-28  3.1963485989604262e-28  6.1249645286810654e-29  9.6719592125816940e-28  1.0911779479927012e-28  1.1720466509404488e-28  2.6629221482580400e-29  2.9529331525849558e-27  5.3765501942849315e-29  6.6824895672614493e-21  1.2846525095761043e-20  2.7771998387144626e-20  1.9987724750938233e-20  6.8364013284462700e-19  1.9227148006787414e-19  2.5355197984734348e-19  2.5077518594232373e-19  4.9274535090238002e-20  4.8827009404981177e-20  7.8120827859771243e-24  5.7645576828291239e-24  6.2938907904545565e-25  4.5509659339159326e-24  1.2563260807072193e-23  2.0075353572273023e-22  3.5837392196115867e-23  1.0246319694793012e-23  7.5780308509062926e-25  9.1529863857601580e-25  1.4504577478812024e-30  2.5147203610251474e-31  1.3460258758099472e-30  3.7160025886646179e-31  9.5616405684644578e-32  1.3178152980055022e-31  1.4504726945201215e-31  1.3497456167293454e-30  1.5929299283262533e-30  2.3901239532048680e-30  5.1749970951714824e-30  4.0759662552443478e-30  2.5256482422344108e-30  5.1252129582425