<?xml version="1.0"?>
<VTKFile type="UnstructuredGrid"  version="0.1"  >
<UnstructuredGrid>
<Piece  NumberOfPoints="6779" NumberOfCells="31578">
<Points>
<DataArray  type="Float64"  NumberOfComponents="3"  format="ascii">10.48579025268555 22.94625091552734 4.000820159912109  10.04558419257267 23.2178508649552 3.800165551525342  10.09451484680176 23.00467491149902 3.570323944091797  10.13602923422916 22.93115156991125 4.01950265727638  10.39534521102905 23.23295021057129 3.781483054161072  10.18495988845825 22.71797561645508 3.789661049842834  10.30490016937256 23.51964950561523 3.562145948410034  9.884129524230957 22.48970031738281 3.57850193977356  9.835198870001864 22.70287627083898 3.808343547207105  9.78626821577277 22.91605222429515 4.03818515464065  2.869144916534424 21.08499908447266 5.50863790512085  2.545106057410409 21.16308300104942 4.805419899213018  2.502982020378113 20.84329509735107 4.939743995666504  2.87602698802948 20.89098453521729 5.108825445175171  2.496099948883057 21.03730964660645 5.339556455612183  2.538223985915352 21.35709755030479 5.205232359158697  2.123054981231689 20.98962020874023 5.170475006103516  2.165179018263985 21.30940811243858 5.03615090965003  2.882909059524536 20.69696998596191 4.709012985229492  2.207303055296281 21.62919601613692 4.901826813196545  7.188916206359863 30.76506042480469 5.222819805145264  7.88464684666371 30.59187486526753 4.972349971925318  7.346854428312504 30.48609495141919 4.793739601050289  7.483288049697876 30.37890529632568 5.284166812896729  7.777659893035889 29.99275016784668 5.345513820648193  8.042585068616351 30.31290939188203 4.543269767830344  8.179018690001723 30.20571973678852 5.033696979676783  7.641226271650517 30.09993982294019 4.855086608801754  7.504792650265146 30.20712947803369 4.364659396955315  8.580377486967556 30.41868930573037 4.721880138705373  8.036659732723265 24.16706879983867 1.981043559521276  8.551281755565736 23.56257011262259 1.324152573728623  8.349028414558367 23.85169363319293 0.9228663745118302  7.965611175402161 23.74863368313734 1.485415780402231  8.420076971879471 24.27012874989427 1.418494153630876  8.62233031288684 23.98100522932393 1.819780352847669  8.803494211035677 24.37318869994986 0.8559447477404751  9.005747552043045 24.08406517937952 1.257230946957268  7.894562618081057 23.33019856643599 0.9897880012831851  9.208000893050414 23.79494165880918 1.658517146174062  1.047256946563721 22.63452911376953 8.223189353942871  1.090086192777086 22.7958365724199 7.69318828704814  1.278858482837677 22.88990497589111 8.113752365112305  0.8420429825782776 23.00354480743408 7.955308198928833  0.6368290185928345 23.37256050109863 7.687427043914795  0.8848722287916431 23.16485226608445 7.425307132034102  1.073644518852234 23.25892066955566 7.845871210098267  1.510460019111633 23.1452808380127 8.004315376281738  1.321687729051042 23.05121243454148 7.583751298217574  1.132915438990452 22.95714403107026 7.163187220153409  1.354293942451477 23.30374908447266 0.6567339897155762  1.730478235357445 23.10380312671404 0.7136083700479864  1.536873996257782 23.010329246521 0.3807869963347912  1.35608446598053 22.72444915771484 0.6628510057926178  1.357874989509583 22.14514923095703 0.6689680218696594  1.732268758886498 22.52450319995623 0.719725386125028  1.538664519786835 22.43102931976318 0.3869040124118328  1.719454050064087 22.71690940856934 0.1048400029540062  1.91305828916375 22.81038328876238 0.4376613766672014  2.106662528263413 22.90385716895543 0.7704827503803966  2.650933980941772 21.70751953125 6.282981872558594  2.572755045091413 22.40843445199301 6.099691003599294  2.207839417640494 21.95462983715016 5.869412195886208  2.133973416981262 22.28185574300435 6.381379999906796  1.617012853020752 22.85619195475871 6.479778127255  2.129660481790133 22.65554475789318 5.686121326926909  2.055794481130903 22.98277066374737 6.198089130947498  1.690878853679983 22.52896604890452 5.967810323234412  1.764744854339214 22.20174014305033 5.455842519213823  2.494576109241053 23.10934937273603 5.916400134639995  1.861300283900059 31.87443785817974 6.183664714588998  0.8530810078481144 31.83699218252408 6.491889857123258  1.435462781175839 31.53006723824677 6.439164099340573  1.483407338008158 31.9860400007012 6.677672254769389  1.278918510572334 32.18136280245704 6.236390472371682  1.105514392116258 32.09764214322267 7.171679794949781  1.057569835283939 31.64166938076824 6.933171639520965  1.00962527845162 31.18569661831381 6.694663484092149  0.09939099848270416 30.65196990966797 5.511184215545654  0.5792782163871446 30.95142264309882 4.919598420718046  0.5792782163871446 31.00570769253729 5.385060628512235  0.09939099848270416 31.13035488128662 5.141480684280396  0.09939099848270416 30.59768486022949 5.045722007751465  0.09939099848270416 31.60873985290527 4.771777153015137  0.5792782163871446 31.48409266415594 5.015357097246977  0.09939099848270416 31.07606983184814 4.676018476486206  0.09939099848270416 30.54339981079102 4.580259799957275  1.059165434291585 31.35944547540662 5.258937041478815  3.814690955717444 22.63095721344638 2.474953198191114  3.174917139808223 23.28473471810263 3.002680433654757  3.52917117402167 22.79775291158847 3.081146079594715  2.984968876389401 22.71641341642853 2.601851194786788  3.460436921503997 23.11793901996054 2.396487552251156  2.155246797061358 22.80186961941068 2.728749191382462  2.699449094693627 22.88320911457063 3.208044076190389  2.630714842175954 23.20339522294269 2.52338554884683  3.10618288729055 23.6049208264747 2.318021906311197  3.243651392325896 22.96454860973057 3.687338960998316  7.564987182617188 27.31520080566406 4.940483093261719  7.966604203655084 26.87126492551437 4.549694060920002  7.613526105880737 26.79729080200195 4.971286535263062  7.992241382598877 27.10936546325684 5.022859573364258  8.419495582580566 26.90353012084961 5.105236053466797  8.015143126918634 26.35335492185226 4.580497502921345  8.393858403636774 26.66542958310714 4.632070541022541  8.040780305862427 26.59145545959473 5.053663015365601  7.662065029144287 26.27938079833984 5.002089977264404  8.368221224692981 26.42732904536467 4.158905028578285  1.578778982162476 28.50972938537598 7.391119956970215  1.450646402777366 28.41515767432218 6.798701767127108  1.155275883616142 28.13557851172452 7.105797294776034  1.235360863150291 28.53161275244718 7.171336177985262  1.713979542255402 27.99724006652832 6.952946662902832  1.794064521789551 28.39327430725098 7.018485546112061  1.498694002628326 28.11369514465332 7.325581073760986  1.418609023094177 27.71766090393066 7.260042190551758  2.009350061416626 28.27681922912598 6.645851135253906  0.8919427441381066 28.55349611951839 6.951552399000311  3.291470050811768 27.63669013977051 3.284817934036255  2.989623178604107 27.60371086648001 3.627737473397951  2.80266797542572 27.43144512176514 3.206761002540588  2.788424968719482 27.74281024932861 3.249516487121582  2.285379886627197 27.84893035888672 3.214215040206909  2.50082110321806 27.39846584847464 3.549680541902284  2.486578096511822 27.70983097603812 3.592436026483278  2.299622893333435 27.53756523132324 3.171459555625916  2.313865900039673 27.22620010375977 3.128704071044922  2.687776306396447 27.57073159318951 3.970657012759646  9.519895553588867 28.54719924926758 0.1048400029540062  9.41844144520439 28.20239659145079 0.5178020103718958  9.686916660844943 28.01664200880513 0.6396256201184375  9.696323544356002 28.58159657314024 0.5178020103718958  9.242013454437256 28.16799926757812 0.1048400029540062  8.964131355285645 27.78879928588867 0.1048400029540062  9.409034561693332 27.63744202711568 0.6396256201184375  9.872751535123138 28.6159938970129 0.9307640177897853  9.863344651612078 28.05103933267779 1.052587627536327  9.853937768101019 27.48608476834267 1.174411237282869  6.806774139404297 32.52194976806641 2.654133081436157  7.274945735704918 32.448587830755 2.976168883361905  6.781780305366901 32.63307220041278 3.302191766422856  6.778137025103629 32.12591970582776 3.149111657355148  6.749499910802961 31.72988964358912 3.644090233274139  7.249951901667522 32.55971026310139 3.624227568348604  7.24630862140425 32.05255776851637 3.471147459280895  6.753143191066233 32.23704213817415 3.797170342341847  6.756786471329505 32.74419463275917 3.950250451409556  7.743117332005538 32.37522589344361 3.298204685287652  2.267183402773877 26.54528962422725 4.731130307099011  2.888443337838363 26.24130757043906 4.106040122559238  2.307444666029223 26.15631689333268 4.380735170800646  2.550626800894237 26.15642205002306 4.720526335469117  2.848182074583017 26.63028030133363 4.456435258857603  3.429180746392157 26.71527097844002 4.181740210616193  3.131625472703377 26.24141272712945 4.445831287227708  2.834070199014597 25.76755447581888 4.709922363839223  2.590888064149583 25.76744931912849 4.370131199170753  2.347705929284569 25.7673441624381 4.030340034502282  4.048978805541992 19.51339912414551 2.18967604637146  4.590982484069626 19.7158950966605 1.795121737142856  4.105392456054688 19.463134765625 1.775537014007568  3.971523404121399 19.74923419952393 1.901698529720306  3.894068002700806 19.98506927490234 1.613721013069153  4.513527082649032 19.95173017203892 1.507144220491702  4.027937054634094 19.69896984100342 1.487559497356415  4.161806106567383 19.41287040710449 1.361397981643677  4.647396134582321 19.66563073814 1.380982704778964  5.132986162597258 19.9183910691755 1.400567427914251  8.693229876605679 26.96871747324542 4.36616198541117  8.718867055549472 27.20681801098789 4.839327497855425  8.287343099065605 27.28087100426034 4.624609779275199  8.155190615550646 27.65821188767107 4.143983505083602  8.586714572034513 27.58415889439862 4.358701223663827  8.261705920121813 27.04277046651787 4.151444266830944  9.018238528518378 27.51010590112617 4.573418942244053  3.104717016220093 28.57683944702148 5.947904109954834  2.956655773667156 28.07606468139899 5.526169031168093  3.211633577101286 28.61318692331947 5.436646155815
[...]
<PointData  Scalars="c_HbO2"> 
<DataArray  type="Float64"  Name="c_HbO2"  format="ascii">1.1741145216056389e-31  2.8821983769581836e-31  3.1279514109544076e-31  1.4576094090285670e-31  7.1134453457670002e-32  2.7700316635360471e-31  2.9745760784497882e-31  2.3168591853362411e-30  4.3031323595738638e-31  2.1840970020311605e-30  1.2127098544407320e-22  6.8273923570453973e-23  3.2159876924467007e-23  2.0281360978454621e-23  4.1429696849383675e-23  2.0081867605051517e-22  3.3099638403342037e-22  3.9885290914473914e-22  5.8087684554839533e-23  1.6910997335419301e-21  2.5118993360408182e-29  2.3160266182079096e-30  1.0455627743682032e-29  3.9145826921198627e-30  6.0127667610270067e-30  1.0998660518051853e-30  6.8700251880066504e-31  1.1977638778034878e-29  1.6710992864487206e-29  3.6160213291359269e-31  1.4426043175707915e-28  8.7673958073151680e-30  5.5999644928388532e-30  2.2950614540443425e-29  7.4618057176064465e-30  1.2088597043683779e-29  3.8724411160528483e-30  9.7929911246005092e-31  3.3994155402713330e-29  4.3113835355581210e-30  2.8948132737871726e-20  1.1933285087566371e-19  1.1618629980936644e-20  4.8364386698874823e-20  1.1099092158912685e-18  3.4609282776983424e-19  1.2042361650519431e-19  6.9125425053153555e-20  5.1398020432251006e-20  8.5583181709602157e-19  1.2686686105863746e-25  5.4655999775530893e-26  3.8017610951914434e-26  2.4468868531595656e-26  1.3329598783614896e-25  5.4734856333544009e-26  2.7526019854095412e-26  2.1158112023940886e-26  2.8427986914154334e-26  3.1725574596499867e-25  2.5470647572020641e-21  3.9022484115729847e-21  4.6238847293067037e-21  1.3666186178314083e-20  3.2807043042020911e-19  1.5234220884346004e-20  2.2039372638419821e-20  7.4943432335147421e-20  5.1522066005851314e-20  3.8163043173408936e-20  1.3978839126528143e-19  1.4506101413159014e-18  3.6702382890217470e-19  2.3841356615374578e-19  2.3739617546018523e-19  6.9750264158988361e-19  7.1443699718098665e-19  1.2589876473211707e-18  1.9999999999989253e-17  9.3535362116036915e-18  9.9733453116872054e-18  1.9999999999989253e-17  1.9999999999989253e-17  1.9999999999989253e-17  2.1191126548792950e-18  1.9999999999989253e-17  1.9999999999989253e-17  1.6021937048322690e-18  4.5409297156387092e-24  6.2968113047458283e-23  1.1364306305522449e-23  3.9099473362207377e-23  5.8008232569595165e-24  5.5438923285390298e-22  1.2678099472588113e-22  5.7918655569608536e-23  2.4338788316191750e-23  1.2632288428976212e-22  6.4432172811072022e-29  2.4449884635743589e-29  3.3441710616730746e-29  5.3268001887136580e-30  3.4480351358457839e-30  1.5917807433883479e-29  2.4260750678772696e-30  7.5250013542528755e-30  1.1817485205379349e-28  1.2641752877566158e-29  4.4437337121098859e-20  7.9808150648503683e-20  1.3742920052552498e-19  6.2730511479761076e-20  4.5202913988731538e-20  1.7006061103620906e-20  2.0620956693751229e-20  1.2255220442071346e-19  6.0382944683442088e-20  1.0531104683114864e-18  1.2111864638185443e-22  1.2162614247774562e-22  3.7765934857138527e-22  7.5167911440156510e-22  3.7699451287104168e-21  5.3836307520813879e-22  1.2727310117878101e-21  5.5843263008299706e-22  9.6803131803366028e-22  2.0010107901833525e-21  -1.0412790128602981e-33  2.6052561045959288e-33  4.5011078089887697e-35  -1.8735406225112014e-33  1.3893664942140702e-33  1.3107691883942101e-32  5.0893753060604741e-33  5.4978857494454531e-33  2.3904278714886889e-33  1.5031681485011808e-32  1.5512525261288550e-31  1.0044313110904031e-31  6.6532879101352696e-31  7.5335080766928825e-31  1.0770473538427369e-29  4.2880863442296798e-31  9.3507859041747326e-31  3.6439648991824910e-30  7.5351518116710564e-31  4.0319182419458836e-31  1.1391483527172616e-20  3.2120727541753785e-22  1.7125856232420886e-21  1.2993747535092876e-21  5.3308008335018580e-22  2.3821114539561353e-22  8.4243074553368282e-23  1.7108048739726202e-21  1.4361376217312766e-21  2.3982452652355808e-21  2.7410231443513880e-27  4.0409098594603493e-28  3.5113753345723821e-28  1.0691134574050038e-27  2.0867880970841766e-27  1.8539087595366984e-28  1.7080754637460710e-28  1.2550983972154113e-28  1.2257368018598634e-28  1.0554333165282874e-27  1.2970529338143870e-30  2.6619258179332107e-31  2.5562716069407627e-30  1.3068531320510919e-29  6.1435539837564911e-31  4.0027998432555012e-30  4.3933565736132692e-31  1.7911652496086847e-21  8.6497065320304630e-22  4.5382976349553849e-22  2.8276191332451126e-21  4.4322840495379385e-20  4.8876799005198566e-21  2.7396991535730544e-21  9.6142118226648770e-22  3.1669062654134083e-22  2.4858376566379172e-21  4.0371818468880715e-24  1.0764043684457356e-23  7.3248735855137338e-24  1.0196698553129277e-23  1.6594715210089397e-24  5.8571610622136803e-24  7.8143823535832348e-24  2.2075932035796933e-23  5.3390475716971644e-23  1.2735405770533559e-25  8.9821615960352179e-27  1.0655216545080991e-25  4.0181061756897623e-26  1.2509950396884632e-26  4.7615979830466046e-26  3.9678074244701281e-26  2.5825077618312904e-27  3.0727548881575252e-27  9.3264682543579397e-26  1.9749414614395681e-31  1.9661733661311540e-32  4.8057652109116382e-32  2.0509028934951992e-32  9.3006418283415378e-33  1.6711850799465930e-32  2.9724931982469929e-31  1.2200731722346313e-28  3.3875738896169795e-30  7.2982072329918544e-30  6.0476919550749178e-30  1.1728874431427476e-29  2.9707860080659364e-29  4.2231072290391449e-29  6.7157908764847882e-30  2.0409268943207452e-29  5.9608423560855556e-30  2.4843346370301374e-20  3.0496307759341554e-20  1.1900812114864746e-20  4.1531718198633016e-21  9.8799167185541819e-21  1.3937270058780202e-20  5.5079260863242163e-20  4.3755375541136170e-21  6.2354985634658990e-21  6.2106028885474414e-20  5.1152107918763808e-23  1.6854988015034981e-22  1.7360488532403502e-22  3.2277185302811749e-23  7.8878388243772486e-23  1.2841456572250204e-21  4.0732033195417671e-22  3.7850794977228797e-22  2.5968126002944368e-22  1.2604009040508824e-25  3.3091916292941202e-25  4.1040295842746127e-25  2.6236740268474583e-25  2.8930925916090248e-25  1.1217038087621600e-25  1.4463429348625058e-24  3.3136061422658433e-25  4.7266587465568522e-25  1.8017992739329776e-24  3.7334048784513333e-30  2.7051791454322899e-29  5.0822022422969377e-30  4.2385309817023520e-30  3.2315127822066996e-30  4.5061853579434381e-29  3.2924822890150930e-29  3.5048111662591241e-29  6.1658903535993459e-29  2.1644575535664921e-24  3.9577646025513701e-25  1.6211121266480137e-24  1.0103238166404755e-24  1.1502124316423036e-24  2.7222257395213189e-24  1.6439169137397043e-24  2.3676232654566927e-23  1.0791251366502133e-24  3.9624715200149246e-25  6.2535509719278001e-29  5.6496259898352554e-30  1.4794629055283790e-29  3.7805030810503244e-30  7.3906002265124924e-29  4.2930399969474296e-29  2.7014197578485739e-30  1.4064030690798601e-30  6.8354859990666435e-30  4.5411168583852342e-28  4.8148123367538917e-28  1.6891292082413449e-28  3.4953712132757146e-28  6.2778459211101339e-29  5.5196450820823429e-29  3.9185764459187037e-29  3.8366378359279230e-29  3.0397090487000250e-28  7.1626566528341283e-27  6.8510465715292997e-31  7.8419003692922861e-31  2.5016886121295428e-31  1.5675067240897385e-30  1.7779160812671740e-30  1.4082601278811463e-30  5.9972654963755311e-31  2.8612111299488267e-23  4.7856160101823400e-23  2.7261486146175617e-23  1.0051713403194796e-23  4.7458537228168249e-23  8.5553660701336962e-22  7.3587259365216517e-23  3.1711711792595461e-23  1.9461046084008900e-23  4.9872506138710746e-23  4.5658366530831479e-32  6.0421086045545090e-32  3.0980358814515504e-32  2.7173918651713629e-31  3.8854332180331261e-30  5.3009310556128266e-31  2.5052016136726879e-31  1.0887874248957135e-31  1.0730527311102785e-31  1.0478035865145695e-30  9.0775855039877789e-24  8.0514771867465530e-25  3.8330463424617044e-25  2.1546621168476128e-24  4.0312176631507728e-25  1.4112424077995110e-24  1.4849806674391706e-25  1.3544687668181069e-25  1.1178582364184531e-24  2.9118046243071603e-24  7.3536426062852385e-29  1.9850340691789651e-28  1.5769176448956381e-28  2.8482158471173825e-27  1.1137044280592117e-28  2.6784538905681833e-28  2.2850362649638600e-28  2.0674172608003676e-29  5.8502028440488741e-31  5.6505711618479489e-31  1.1205979450095579e-31  2.6439676019369488e-31  3.7613526036381434e-31  8.9578587016170499e-31  5.9538041522445700e-30  9.6717039396005834e-32  1.6534693367407715e-31  8.2384423222101733e-32  2.9522509252059868e-31  4.8535538873423238e-30  4.7487427345068694e-31  1.4219217245877069e-30  9.8945537088748307e-31  2.9787689993194178e-31  2.7455095189955160e-31  1.1907056359860916e-24  2.1446938320142991e-25  1.6351926792393908e-24  1.0162684795034062e-25  6.0358401254258778e-26  8.1181688705857661e-26  7.9465086286970408e-24  1.0417618582585738e-24  3.8697231147646842e-25  5.9158899009283378e-25  1.5583203804617062e-24  3.9269674357564312e-24  2.0993858595176206e-24  2.2532093021397875e-24  4.8110083359936019e-25  1.3727830094555753e-23  2.8218187166691672e-29  2.7614620305084926e-30  4.6620935968204629e-29  8.1222389696225322e-30  4.5995197491004102e-30  1.3002020235961590e-29  5.1746357771084726e-29  3.6359699743668019e-28  4.9446632994084618e-30  1.7860883881496239e-29  2.0376575172774587e-19  1.9476879121145435e-20  2.2482474538162435e-20  6.5992844873917950e-20  8.9961757954548864e-21  4.9071909487203353e-20  9.0262314515245145e-20  1.4936254395813739e-19  9.2131582163591400e-21  6.7602439262210690e-33  3.4157619762783677e-32  7.7852987845463206e-33  1.3960031508272376e-32  4.9025909321438703e-33  2.6692405144296588e-32  1.7867635813451304e-32  1.5978964321377060e-31  4.5641690438856248e-32  1.5712882605067779e-31  1.2243080749860064e-24  8.9100077313239181e-24  2.3029340480582370e-24  1.7326302590015432e-24  6.2044717099665572e-25  1.9936976833492247e-24  2.1199076420562222e-24  3.1177248262203769e-23  4.0795825386047390e-23  9.9590728407335006e-24  1.4736504517487119e-23  5.6781482906649726e-24  6.4057767214306099e-24  1.7300492588668785e-23  1.8990497573069669e-25  7.7513351476645019e-25  2.3752242064565450e-25  7.1389378200492679e-26  6.8093982474697307e-26  6.3744794649726165e-25  6.3631915837329451e-25  1.8612236786049199e-25  1.3766405146918371e-23  7.8870304578718427e-26  7.4372935526535187e-26  5.2691765731632357e-25  1.7770585696909347e-25  1.3440575225822949e-25  1.8724984348999831e-25  1.5913887459308658e-24  2.3382495842455915e-28  2.8782048899671722e-29  1.4279613419338245e-29  5.0230188615760689e-29  1.6776709865832457e-29  1.1749186580612616e-29  7.0185543799541462e-30  2.2279670300177894e-30  1.6585580164335656e-29  1.1336003666196857e-28  1.0199587015492762e-22  4.6397487840113251e-23  1.8834430450746093e-22  1.1323685661355943e-22  2.0185355466395249e-23  7.7773042553853566e-23  3.4341523299645906e-22  4.5322309095873244e-23  2.9801233662733701e-23  2.3775549196958265e-20  1.2998764963783882e-20  4.1489635098490208e-20  7.9794255988034268e-20  2.6819532045008928e-20  4.3786480061280643e-19  1.7970598154707031e-19  1.4828987523015702e-24  5.1300245402254301e-25  1.1445528420040342e-24  9.4913255826748989e-25  3.5944193995208167e-26  1.3756608698289722e-25  6.8089704634642933e-26  4.3560617990993984e-26  8.2259001517755288e-27  4.3935606593425271e-26  1.9769621666770935e-30  6.9093772708878095e-30  2.8768578404801150e-30  2.3112214506853393e-30  1.3258899500090389e-29  4.9125062992567744e-31  4.0899054152682461e-31  4.7778782345028235e-31  9.5130689233202713e-29  3.6832077332402385e-30  1.9999999999989253e-17  5.9691780850028415e-18  2.1725514585931422e-18  8.7408692623853965e-19  1.9999999999989253e-17  1.9999999999989253e-17  1.9999999999989253e-17  1.9999999999989253e-17  1.9999999999989253e-17  5.1944426249240859e-19  2.7589836898650503e-26  1.6862071809370243e-26  1.4438952285415246e-26  6.7914227554009763e-27  1.0221760495725190e-26  4.7272367952454643e-26  1.1496647075371812e-26  2.1356890740824612e-26  1.8273673288258739e-26  6.7254938567004204e-27  4.4273394434096707e-27  1.5587987740821747e-27  3.2212474453165525e-27  4.8220147351463608e-27  5.8518254747360840e-26  1.0672516590741344e-26  1.7626226174894064e-27  1.7107072456585364e-27  3.1369195890284135e-27  2.1841765927061570e-29  9.3099002812143219e-30  7.3718808934522417e-30  2.8738682391410723e-29  2.3579307356917902e-28  2.2675902657572389e-29  2.5459837547962056e-29  1.8043859566961024e-28  1.1528858415181304e-29  1.4875238125861813e-32  1.9190365325507124e-31  7.2651027449052823e-32  3.0864421107424679e-32  1.3668418097972055e-32  2.9280226475044343e-33  1.2557913608222263e-32  8.4874797830967968e-30  1.1898198141613612e-29  1.0872061928678935e-29  7.5014942348142904e-30  2.4714099111857858e-30  3.0640944565649914e-30  5.3333427158932326e-30  3.2647454968628828e-30  1.2572909215307235e-29  1.3250916103530484e-28  4.2901811320397335e-28  1.9672821348520008e-28  8.4547105209584434e-29  6.6305545121225968e-28  1.9999999999989253e-17  7.7010130473903675e-19  7.9239941757447916e-18  8.2495307759690998e-18  1.4272215197164606e-18  5.0754443733032073e-19  3.4769783173206771e-19  1.4965688188314239e-18  1.0644926720837322e-18  1.2305725812978253e-18  4.6155128244626913e-26  2.8382424181136713e-26  7.4804487999182031e-26  6.1627290238613420e-27  2.6044457348726553e-27  1.0822351048261224e-26  3.1541956669585789e-27  1.3088635615435798e-26  1.7845728270235701e-31  1.6716762937344891e-32  1.5462169130222583e-32  1.0036969666099346e-32  2.4067768367985647e-32  2.7616137204255584e-32  6.2740828411418657e-32  4.9699193293193193e-33  3.1996573430285115e-33  1.4326106662043454e-32  6.2578148551484812e-28  1.4850367042848220e-27  4.9354106054325287e-28  7.1627987051785135e-28  8.9742547200017999e-28  2.1980398601920091e-28  5.7218900065070427e-27  4.5399572312499085e-28  2.6065493149914539e-29  2.6528014390554930e-29  3.1767219861892435e-29  1.1282971326780696e-28  1.0921426280998547e-29  1.0567056687943549e-29  1.4808707463027113e-29  1.3208651168345836e-28  5.2205578789497208e-29  8.0745492720688822e-31  1.5483916581131859e-31  3.4449406500197375e-31  2.6057808699137159e-31  1.3333460027823588e-30  1.7795892414840923e-31  1.3239237068194003e-19  4.7565506440974489e-19  3.0177617232723898e-19  1.8168493341468574e-19  3.5883637809511047e-19  1.2013679436662312e-18  6.5669652141996203e-19  1.1989612853336001e-18  7.5448699621422676e-19  1.6137299405294152e-18  1.9999999999989253e-17  1.3247910182211605e-17  1.0415467694306366e-17  1.9999999999989253e-17  1.9999999999989253e-17  1.9999999999989253e-17  1.8907162187960307e-18  1.9999999999989253e-17  1.9999999999989253e-17  7.7200886319813820e-19  2.0548352287709068e-32  1.2504362778733028e-32  3.6406929347445509e-32  1.9023307200677844e-32  2.0660662011917201e-32  6.9593585385591025e-33  8.7330152858366588e-32  3.9252837151888049e-33  2.0815285977860417e-32  2.0172778348175621e-31  2.1708855607955469e-27  5.8904967905822770e-27  7.9712714204367134e-27  7.6207330100152384e-27  1.3116560322531435e-26  1.1460553634674559e-26  1.8048527167749676e-26  1.7914852903058617e-25  1.0822617513340251e-26  3.3940964662252956e-31  1.4299888761663839e-31  1.6921575063968922e-31  1.1684118157984785e-31  1.1374838322646950e-30  3.7976262603358746e-31  3.2437175593159982e-30  2.8342424138397077e-24  7.1902968935276129e-25  1.5366194471691426e-24  7.8962750863307215e-25  2.5011460263680747e-25  3.0346105666559125e-25  4.6355688399238830e-25  1.2932233433160668e-24  7.2826946012491444e-24  1.3591077072950887e-23  2.1003922032005791e-23  1.7794804454740943e-23  2.9472321843703941e-23  1.9261449831279144e-23  3.1793319828180115e-23  3.1623708498856952e-22  1.3631095164043001e-22  3.0808528513163574e-25  1.2814925760597204e-25  2.6898526699194174e-26  4.9914806535526603e-26  1.6776567431379358e-25  3.1097965673444444e-26  1.9167155436224283e-26  8.9478076079620478e-26  3.6858099616559875e-26  1.0682333899989870e-26  1.0474284096895044e-26  2.4140774087255129e-26  1.9267359088413434e-26  9.6174652535619942e-27  5.7494231584001298e-27  1.1135854528623515e-26  7.2582578535954903e-27  9.7544490644996513e-27  8.1605570336501018e-34  4.2741947225165157e-33  1.5718840317052009e-33  7.2168343555194584e-34  3.3982679107894446e-34  1.9603626764737221e-33  2.2120220530294619e-33  1.8077854798928366e-32  1.0155595230975460e-32  3.7854300722041138e-32  2.1881780387699608e-21  6.4713950261358085e-21  2.9813611866903600e-20  3.8995321471528324e-21  5.7693790555970406e-21  8.1769604810676696e-22  2.8400048958512212e-21  2.4372801430667437e-20  9.6774392917127675e-23  5.7625608379903584e-24  2.6640584670049670e-23  6.6029699206340853e-24  1.9560658715123005e-23  2.5558002842749239e-24  3.1133015434678199e-24  1.5442566107805205e-24  2.0482565170975129e-22  3.6493661535132115e-22  3.6298394645253654e-22  1.3530806708710162e-22  4.7233790807242328e-23  8.1408505288981065e-22  4.0428221392353032e-22  1.7418477628833002e-21  2.3625310029003713e-24  1.8577232679905974e-24  2.4725882310855974e-25  1.3188984793758169e-25  5.0177720661272456e-25  1.0130307594755393e-24  4.3571820784177575e-29  1.9753403160622226e-29  9.5971840696121774e-29  1.2623445793953363e-27  1.2597754816179463e-28  4.8678247757063369e-29  7.0429920554535464e-30  6.3375184349195880e-30  6.4346201927014490e-30  1.7569167882165566e-30  1.2349241791753900e-29  1.4300232541621291e-29  2.5287826972124688e-33  1.2120662719096412e-32  6.4919649712507177e-33  3.9648107274325883e-33  5.8155397318470229e-33  1.8290085135886794e-32  2.0078577466401907e-32  4.4006487663087554e-32  1.6032551220809164e-32  6.2793745454962091e-32  4.7462225051813097e-33  1.8200415803963154e-32  1.5842158436630579e-32  9.4531299090374099e-33  9.5215826230088202e-33  4.7659830803871478e-32  1.9613790573182147e-32  9.6850662819273622e-32  5.4639720268952132e-32  1.3536463370285739e-31  8.1052039426603944e-19  7.6470313412075309e-18  5.1648252343908293e-18  9.3132491634068048e-18  1.6394511351993015e-18  1.9549354165323072e-31  2.1205665134840205e-31  3.3101791238581900e-32  1.8837588241367651e-31  2.1857075705173942e-32  1.0096841115612212e-31  2.2794627490322757e-32  1.9103008472533752e-31  3.0151604310191561e-30  2.1430225212233505e-30  8.4934044900919168e-30  1.2983158125202562e-29  8.2042050282291438e-31  1.3319361664040628e-30  2.9375389150006587e-24  1.9397610760597411e-24  4.0309660532349179e-24  6.5653991592951562e-24  5.7029073809423664e-24  1.3454735765747493e-24  1.0246064957214267e-23  3.7844794657650202e-29  1.0442154961629110e-29  1.6365528341641323e-29  5.2067577356175917e-30  2.5631801366092478e-30  6.7931182464473189e-30  1.0660974609687468e-30  6.0411978742618479e-30  9.8962517942836983e-29  1.6517485544975776e-30  1.1827065508691029e-28  1.7421884736156395e-29  8.0945801364996365e-30  1.7372065120988913e-29  1.4674691148488755e-29  3.0820159366213121e-29  5.6829033988907331e-30  1.0692523388259026e-29  2.7749017802398612e-29  1.9496868586455716e-30  5.4939361553527890e-31  1.9966726410405064e-30  4.5770820244708469e-31  1.6595800128939659e-31  3.5410101403787093e-31  2.0023060383405667e-31  2.1798619516219354e-30  1.7166550000125055e-30  9.8440493210296508e-30  7.7673457805681437e-29  1.1145648252305210e-28  2.2209258687880671e-28  4.1351496581069835e-28  6.2500311989892352e-28  1.0857513155267671e-27  2.2919266604259542e-27  3.0440741687492251e-28  2.2434710447133701e-28  1.2490200688709698e-30  2.5498598954489472e-30  1.2958820365327963e-30  2.4454988232753202e-31  8.9963602000730653e-31  2.8870418265393315e-30  2.9326621027436422e-29  5.7600851564774862e-31  4.9798648686738393e-31  5.1123399230408558e-30  5.1499653230625903e-24  3.9831470595128846e-24  1.0262137728350094e-23  9.0937447789076988e-24  2.0448042303299464e-23  6.5109965828182281e-23  1.2630085727332280e-28  3.5116733599206433e-30  7.6421364382410129e-30  1.0928753066672564e-29  1.0103159686797840e-29  1.1822467963187099e-29  2.7357875772548165e-29  4.2380890327404195e-30  6.5002205005933023e-23  3.6398489383968334e-23  3.1018647382636362e-23  8.7142110287917561e-24  1.6135450395777613e-31  1.6028703138833928e-31  2.8307654639807643e-31  5.95260848319