<?xml version="1.0"?>
<VTKFile type="UnstructuredGrid"  version="0.1"  >
<UnstructuredGrid>
<Piece  NumberOfPoints="6926" NumberOfCells="32223">
<Points>
<DataArray  type="Float64"  NumberOfComponents="3"  format="ascii">21.8010651694571 37.18613362373468 29.03427286212382  22.42578959496435 36.66380407292682 28.52364418107673  22.49379207444089 36.55205282614855 29.42889940338117  22.73208234468356 37.3729312190321 28.91713138121968  23.66309951991002 37.55972881432952 28.79998990031553  23.35680677019081 36.85060166822424 28.40650270017259  23.42480924966735 36.73885042144597 29.31175792247702  23.18651897942468 35.91797202856242 29.82352594463852  23.11851649994814 36.02972327534069 28.91827072233408  23.05051402047161 36.14147452211896 28.01301550002965  20.26705932617188 39.31787872314453 31.79626083374023  20.24798795869045 39.18376360142688 31.08495497012354  20.19570276429348 38.89483843052844 31.54085993075586  20.57253127326246 39.05444541910971 31.31732228990673  20.31934452056885 39.60680389404297 31.34035587310791  20.37162971496582 39.89572906494141 30.88445091247559  20.62481646765944 39.34337059000815 30.86141732927441  20.87800322035305 38.79101211507489 30.83838374607323  20.50117471138407 38.63140512649362 31.06192138692236  20.12434620241509 38.47179813791236 31.2854590277715  22.27211952209473 33.25748062133789 26.4819393157959  22.71914793999351 33.69910331331554 27.2721590150364  22.36106580487946 34.03017012526851 27.55050241463581  22.07265621987447 33.35414434489756 27.2512166411912  22.43073835498852 33.0230775329446 26.97287324159179  22.56052910709972 33.93350640170884 26.78122508924051  22.84893869210471 34.60953218207978 27.08051086268512  21.87319291765421 33.45080806845724 28.0204939665865  22.23127505276826 33.11974125650427 27.74215056698709  22.58935718788231 32.7886744445513 27.46380716738769  18.94380950927734 32.58897018432617 24.37828063964844  18.5181678714709 33.23158382522654 24.19432941461526  18.69190312633069 33.3013471370029 24.70750565177386  19.02679443359375 32.99210548400879 24.31891059875488  19.10977935791016 33.39524078369141 24.25954055786133  18.27402689475122 33.20745349031439 25.15547074568638  18.10029163989144 33.13769017853802 24.64229450852779  18.60891820201428 32.89821183732028 24.76687569266741  17.92655638503165 33.06792686676166 24.12911827136919  22.64785003662109 33.79932022094727 25.6840705871582  23.62717674119145 33.65360965537376 25.61741890987896  23.37504241807133 34.14207019614524 25.54418816647076  23.21072719437749 33.8098100643093 25.96995892605328  23.06429958343506 33.64311981201172 25.33153057098389  22.81216526031494 34.1315803527832 25.25829982757568  22.97648048400879 34.46384048461914 24.83252906799316  23.22861480712891 33.97537994384766 24.90575981140137  23.48074913024902 33.48691940307617 24.97899055480957  23.77360435213388 33.82029990767133 26.25584726494835  20.48497002455461 35.85969200462365 29.26122926661873  20.95263886590042 36.34715601395982 28.37867769522041  20.65987949026914 36.00827905272855 28.00318685693152  20.95874300716366 35.80841373575343 28.66110365249349  20.18610650766009 36.05955732159877 28.60331247105676  20.47886588329137 36.39843428283005 28.97880330934564  19.88724299076556 36.2594226385739 27.94539567549479  20.18000236639684 36.59829959980517 28.32088651378367  21.43251598977272 35.75713546688321 28.06097803836826  20.47276174202813 36.93717656103644 28.69637735207255  26.17881011962891 38.43814086914062 31.74397087097168  25.99393935128287 38.56000998394903 32.38045886622768  26.46284484863281 38.55072975158691 32.0644998550415  26.25073528289795 38.8465461730957 31.92119121551514  24.18029975891113 31.70298957824707 25.36706924438477  24.86803216008888 31.55375784759383 26.02234406712539  24.66910714177833 31.91794222717146 25.88180394413955  24.98342102514595 31.80599940846122 25.35036480323917  24.37922477722168 31.33880519866943 25.50760936737061  24.57814979553223 30.9746208190918 25.64814949035645  25.1823460434565 31.44181502888358 25.49090492622501  25.78654229138078 31.90900923867537 25.33366036209357  25.47222840801316 32.02095205738561 25.86509950299396  25.15791452464553 32.13289487609585 26.39653864389434  19.01755905151367 35.97211837768555 27.35708999633789  19.11114724363885 35.7904862881897 26.57831607143796  19.44120509916159 35.40438794298002 26.8784213429757  19.23786195005975 36.15140051853638 27.01496634762204  18.89084434509277 35.61120414733887 26.92043972015381  18.76412963867188 35.25028991699219 26.48378944396973  19.66150799770766 35.58367008383085 26.53629769425985  19.31449039274069 35.04347371263334 26.44177106679161  19.45816484860582 36.33068265938721 26.67284269890619  19.8648511468095 34.83665750827448 26.3997526896135  21.64180946350098 37.33768081665039 24.66869926452637  21.70366481299508 37.15938436981256 25.71471879576453  22.28763334858294 37.40828868662748 25.65144308312261  21.7118413864693 37.60086242005802 25.29730647780256  22.21760142561462 37.14510708321985 25.02283586984642  21.63363289002675 36.89620276640493 25.08611158248834  22.79339338772826 36.95253334978931 25.37697247516646  22.20942485214039 36.70362903297438 25.44024818780838  21.78187330943763 37.86404402346565 25.92591369107875  21.62545631655253 36.45472471615946 25.5035239004503  24.98439979553223 35.6440315246582 32.90752029418945  25.48365728456068 34.99561286612018 33.31908881144552  25.21036760407972 35.43342376394732 33.36906325297385  25.55587005615234 35.51018524169922 32.91816520690918  25.25768947601318 35.20622062683105 32.85754585266113  25.53097915649414 34.76840972900391 32.80757141113281  25.43633541262722 35.22281600323645 33.83060621175823  21.00445938110352 35.254150390625 32.08581161499023  21.5037524556485 35.37156881846666 31.46488448733339  21.73618600092272 35.51791187965845 31.86129344742566  21.52684113703112 35.04591175758814 31.87738956253796  21.21380424499512 35.72615051269531 32.06971549987793  20.98137069972089 35.57980745150351 31.67330653978566  21.42314910888672 36.19815063476562 32.05361938476562  21.1907155636125 36.05180757357383 31.65721042467336  22.04922289295872 34.83767312455127 31.66896751008569  20.95828201833827 35.90546451238203 31.26080146458109  27.09366989135742 38.23577117919922 27.0488395690918  26.55659161977797 38.44823517004515 26.52383635651773  26.76510201864272 38.5647512833264 26.95194647919839  26.3899571679475 37.94913934645504 27.11240733505321  26.88515949249268 38.11925506591797 26.62072944641113  26.67664909362793 38.00273895263672 26.19261932373047  26.0613892952328 38.27811945058222 27.01551424515981  26.18144676908275 37.83262323317379 26.68429721237255  25.68624444453758 37.66250751371086 27.17597510101463  26.43653414592801 38.89373138745358 26.85505338930498  23.49772071838379 32.07273101806641 25.98236083984375  24.17667075644844 32.09620519449839 26.39532914479781  23.84036026569976 32.35665857163552 25.97297969572465  23.64932523255542 32.40404153483512 26.51052712182539  23.83403120913248 31.81227764092927 26.40471028891691  23.80092974672705 32.73535205160383 27.03869340380702  23.99196477987139 32.68796908840423 26.50114597770629  23.98563572330411 32.14358815769798 26.93287657089855  24.17034169988116 31.55182426379214 26.82705973799007  24.18299981301573 32.64058612520463 25.96359855160555  22.27210998535156 35.68714141845703 33.19731140136719  22.84967718816033 36.04896862368574 32.81480386499049  22.89082034381783 35.81671118346431 33.28454799553963  22.66166220402947 35.67765934329023 32.75084474328639  22.46012496948242 36.05845069885254 33.26127052307129  22.64813995361328 36.42975997924805 33.32522964477539  23.07883532794869 36.18802046385982 33.34850711724373  23.05121442270737 35.66817726812343 32.3043780852056  23.28037256249573 35.80722910829751 32.83808133745884  23.50953070228409 35.9462809484716 33.37178458971208  22.13894889989976 37.00050323179752 30.35026448581468  21.80634750353982 37.65018236486181 29.65758547855095  22.34247642848543 37.23014881572242 29.60329675857216  21.59753764087143 36.95648803980978 29.78124058936634  21.39401011228576 36.72684245588488 30.52820831660886  21.60281997495415 37.42053678093691 30.40455320579347  22.88388768751376 37.27416400771016 30.17232065502049  22.34775876256815 37.69419755684955 30.22660937499928  21.81162983762254 38.11423110598894 30.28089809497808  24.02271086575898 34.25093643018983 25.6905337015363  24.2693209270056 33.60367411851746 25.18358155013413  23.87628325481655 34.08424617789225 25.05210534646691  24.27181737938408 34.68157295270833 25.12522013812425  24.41574853794803 33.77036437081505 25.82200990520352  24.66485505157313 34.20100089333354 25.25669634179146  25.05789272376218 33.72042883395876 25.38817254545868  25.28692297798922 38.91218502640839 25.94112837510238  24.15897056387418 38.74756939225715 26.50766140211962  24.64119657553242 39.05930013780504 25.8536782430429  24.64270983481305 39.14890521359742 26.26130663268524  24.80469696633099 38.6004542808605 26.59511153417909  24.32247095467275 38.28872353531261 27.2490946932558  24.16048382315481 38.83717446804953 26.91528979176195  23.99849669163688 39.38562540078645 26.5814848902681  23.99698343235625 39.29602032499407 26.17385650062576  23.99547017307561 39.20641524920169 25.76622811098343  24.18921089172363 39.89572906494141 33.39216995239258  24.22494312461922 38.87545944865427 33.57162527999225  24.72735087443891 39.35873431781408 33.69701609176716  24.09872273571498 39.41245419578159 33.14335461058836  24.51064232952601 39.41245419578159 33.01993008055906  24.60113048553467 39.89572906494141 33.26874542236328  25.0130500793457 39.89572906494141 33.14532089233398  24.00823457970632 38.92917932662179 32.89453926878415  20.53395080566406 39.05884170532227 24.56432914733887  20.75042758906496 39.21482546213467 24.94203090888765  20.87701723015199 38.86372197029905 24.76963435243852  20.58186265861879 39.02867329476194 24.88124857973344  20.70251573611023 39.24499387269
[...]
<PointData  Scalars="c_HbO2"> 
<DataArray  type="Float64"  Name="c_HbO2"  format="ascii">1.7379043284413347e-39  2.7880049880560074e-39  3.0226433570063080e-39  1.0220819034450772e-39  3.0990294361903208e-40  2.6351218311326993e-40  9.0798176687172803e-40  1.0464043700955644e-39  9.4265999200527328e-40  7.6710964255090071e-40  3.9901547367489745e-38  2.1545781946616223e-38  2.7531572397909735e-38  -1.2530569510183673e-38  2.1783784121347467e-38  -2.4167004078391216e-38  -2.4717426688277036e-38  -9.7265389536372408e-39  2.1874511803516907e-38  3.4522512250573632e-38  -3.0385766408252331e-40  -5.6132206299998325e-40  1.2299350476227904e-39  -3.5443651682950579e-40  -1.2451615066074147e-39  -4.8770263291214732e-40  3.5912072803696103e-41  2.9158094046361692e-39  1.3600374018836076e-40  -1.4101575954619933e-39  -9.2158781304236748e-42  -7.3285257376616140e-42  -7.7841847560174314e-41  -2.3939494146954283e-41  -1.4096643397801299e-41  3.8067310223466251e-41  -2.6589725739520318e-41  -5.1159644123598189e-41  -2.4028580451202709e-42  -2.0336269666219793e-41  7.1290934958839325e-41  6.8994268263369734e-41  -4.4798931853460022e-41  9.9917143537908609e-41  3.8517260151015873e-41  5.8924567008295665e-41  8.9198331824265498e-41  7.8224202111000110e-41  -9.6380183771766110e-41  1.4591106077238952e-39  -1.1463168932373192e-38  -6.5959079688774773e-39  -7.1300640965005568e-39  -8.0306175783944674e-39  -1.2857601932107037e-38  -1.4223898465204030e-38  -2.1550800321909830e-38  -1.9198907974086166e-39  -1.7197270206360524e-38  -2.6821788647992997e-41  -1.9860539828769858e-41  -3.0105243082259026e-42  -3.9070895344674963e-42  -2.7676367364024105e-41  2.1253350319091140e-42  7.7073932915966192e-42  -2.2287818051994171e-41  -6.2995559493150937e-41  -7.1053030513915448e-42  -9.5794465845029565e-42  -4.1392650894796236e-43  -1.0814328092998596e-41  2.0948056153989810e-41  -4.0501685142215639e-39  -9.0580011947256582e-40  6.7842291623553016e-39  1.0664523177998995e-38  2.2528379279745230e-39  -8.5993674607531882e-40  -5.1108416438703119e-41  9.5486130692774695e-42  5.3673511996544449e-39  2.0723126165737843e-40  6.2998934064312240e-41  -1.1182083054453088e-39  -5.4490547023031331e-40  -6.0113708618698680e-41  1.3600721174190044e-40  1.8066241999930353e-41  -1.7500304867699809e-40  -4.5094145519680359e-40  -6.0983029733299957e-40  -3.8588560628298147e-40  3.0357154458155057e-41  3.8056672914743265e-41  3.6738728924605289e-41  -4.4748948024826935e-41  3.0846964632078134e-40  7.3915578578893875e-41  -5.0856720908141026e-41  -2.8194372933156223e-38  -2.0450567542328405e-38  -2.0207092489682331e-38  -2.3838012423075749e-38  -2.5315337123360025e-38  -2.4692510680577050e-38  -1.2867724120671616e-38  -2.5804115270077745e-38  -3.1842974346710003e-39  -1.1622160366595603e-38  -8.8477917903360337e-42  -2.6895344981633236e-42  -6.3540673900768282e-42  -5.7486636641030739e-42  -4.3574040631315770e-42  4.1181521339018919e-42  8.3879616422068279e-42  1.7786993281328524e-41  1.9267327556306985e-41  -3.3538881293089095e-42  1.3382245670319243e-40  1.8371965456797868e-40  1.1344782902006001e-40  3.9634707014262542e-40  2.9756500570295972e-40  -2.5954865728561559e-40  1.0210096157084916e-40  1.7991619765967178e-40  1.1732301673639877e-40  6.1643800673598081e-41  4.3419582480806660e-40  -3.9450640973133357e-40  -8.4931742365563965e-40  8.1151344053522192e-40  -3.2032617724652787e-40  -6.8129936811892082e-40  -4.5914981739609152e-40  1.5713626240710039e-39  -4.4248975596664464e-40  -2.6251705301960926e-40  4.1917657393876355e-39  -2.1735885787912938e-39  5.1877684990340886e-39  -4.3151614471193063e-39  -6.8696731842175622e-39  -9.2637122870028273e-39  2.7468112932348933e-39  2.9808311215734752e-39  -2.8556571406372744e-39  5.4689301130240067e-41  5.2793853167352601e-41  5.9139393884261493e-41  1.0609438271371372e-40  6.8349369337216378e-41  2.2102405899085375e-41  -1.1233871853427055e-41  3.2295321034297144e-41  9.8367974879408612e-41  2.4610459094488146e-41  3.0801613300141276e-41  8.7822413403168180e-41  -6.5570764654782335e-41  4.8653381353639790e-41  7.2552333388278180e-41  5.8364347829394453e-41  1.6419490850755884e-41  1.3813643007374857e-40  6.5765530255303621e-41  1.0553685289301939e-41  1.3534861186555349e-40  8.7584464855730129e-41  4.7265546211034911e-41  1.1915215634213958e-41  -2.2223404270866440e-41  3.8699945838967073e-40  3.1186013895646511e-40  2.3347924405891019e-40  3.8773203177582455e-40  2.3026970648626241e-40  1.7703516814898053e-40  1.3553678072902309e-40  4.5639715530958674e-41  1.3558451748512008e-40  -4.9168882478114129e-40  2.6540378727727395e-39  -1.2809483388396074e-39  -9.3875902080939108e-40  3.5087953122062008e-39  2.3412364498573066e-39  6.7050537636382685e-39  -1.4030626040167110e-39  5.4156262166778851e-39  2.5221476549736967e-39  3.3974659612147709e-41  1.2276597459008565e-38  1.0148024809939864e-37  6.8561390035520401e-38  3.2321993226334190e-37  1.3401605243551149e-37  1.2703099259649424e-37  1.2876240336416945e-37  -1.1162094974166163e-37  -3.6530249319806633e-37  3.0098549669018381e-38  -4.2314968532135624e-40  -8.2267987416502476e-40  -6.7460602806338235e-40  -8.8254434242251948e-41  -1.4149267709485679e-39  -9.3073042885101110e-41  -7.0881392563000145e-40  -1.5219398823829385e-41  1.3741279158366076e-39  1.2288565581833559e-40  -3.7040833495750080e-42  -2.7351047565211741e-41  -8.5035210388864057e-42  -2.9801138473175300e-41  -6.9900270712537628e-42  -1.6894280181773495e-38  8.9950996963563168e-38  5.9552990495498218e-38  4.1623369178162408e-38  -2.7092421590638087e-40  -1.3551599371959731e-38  3.8896832756258202e-38  1.1711126933169103e-38  4.4424609457567080e-38  -9.1593706391983229e-38  -3.9665185574737890e-37  -6.7091511290492331e-37  -1.3930069958404945e-37  -1.3004315585100214e-37  -1.3812379271099623e-38  1.8264606301504338e-37  -1.2169691127288184e-37  -3.3206645495572786e-38  1.2758669147833667e-39  4.3746687862698061e-39  2.6373446025845568e-39  1.3635243198833008e-39  2.2784058991163826e-39  8.3525208301039984e-40  3.9334528561211415e-39  6.0228183159057081e-39  2.6041579581171337e-39  1.6107583743442148e-41  2.6123827294533766e-41  4.9315586598486046e-41  2.2139698759231639e-41  7.0748959212320509e-42  3.9363485839576358e-41  2.0787492502895898e-41  7.6100598420975908e-41  7.0289943116720589e-41  2.8940932458363989e-41  3.3768153874751839e-39  -5.5835430179634755e-40  5.4096504646196323e-41  2.6101090766149937e-39  4.6028047364271016e-39  -1.3078105640837809e-39  -2.8461537353571768e-39  -6.6737215627205668e-40  -9.3431173083331755e-40  -8.4175365761310283e-40  -2.0338324600731438e-41  -2.6174304183995966e-41  -1.5087515413477363e-41  -2.2145437622979029e-41  -5.5661295586555154e-41  -4.7651728624844796e-42  -1.0102400413874086e-40  -5.0618480259392921e-41  2.3147169456616896e-41  -4.1741540778901970e-41  -3.2505104625437669e-41  -1.8299878634149702e-41  2.5630572811425308e-41  -1.4104436552321786e-40  -1.7992721739636452e-41  -6.8426272708912331e-40  -5.1681251533115517e-40  -1.6297066131178954e-40  -1.9170777986615421e-39  -6.3551676254944900e-40  1.9752544403680824e-39  -1.3094673328174055e-40  -7.9715821733198850e-40  -1.7354564345038918e-40  -1.6639941087350037e-40  -5.8918418107923000e-40  -9.8341234536869008e-40  -4.1002205161250639e-40  -6.3158535190146632e-40  3.2271232569378847e-40  -2.3105073527521176e-41  9.8251188676505985e-42  1.1010035435524601e-41  -2.0549341839198068e-41  3.9661930893037306e-42  -9.2396846106909404e-43  -9.8206705056783356e-42  -3.7547673112804814e-41  9.7658687514049383e-38  -1.6961662467427217e-38  8.0372583115740262e-39  2.7646247305161968e-38  -2.3438355575196068e-38  1.1735401903237269e-38  2.3201312455479429e-38  -3.2921457891090036e-39  -6.0605193030457380e-39  -8.0542868128032574e-39  1.0212369107268025e-37  4.1638480553418265e-38  3.2461153877127478e-38  2.3424985120414426e-38  3.3419624682990725e-38  5.2901525975442417e-38  -2.2380969639782466e-38  1.9492945138777460e-40  1.7875712950472249e-40  2.0096319974270901e-40  1.6958391388349058e-40  9.0533494762684335e-41  2.4954948918649194e-40  1.7408292750969536e-40  1.2745051680135974e-40  1.0532618932292752e-40  -4.8532777448835366e-38  -4.3258258009552631e-38  -3.3536737182026796e-38  -5.6250403228267814e-38  -2.1045503318292077e-38  7.9486787409842195e-39  -3.5917554863079365e-38  -6.2474612420784565e-39  4.0727228406268541e-39  -2.1265792570311576e-38  6.4738566508954899e-41  -9.0197689858603504e-40  -3.0681608872850647e-40  1.1012580797599220e-40  -2.0315346993376331e-40  -1.2527857565941866e-39  -1.3480754121184854e-39  -1.4895807314306837e-39  1.5083157730638663e-39  2.1721204985062626e-39  3.0820288937985820e-39  5.1792861279711658e-39  -3.2245177249274265e-40  5.6024023662947967e-39  -2.4183627430302330e-39  -8.7721680087040459e-39  1.4659359074290232e-39  5.5748150679478161e-41  -1.1990833792921790e-41  -1.8947154118269693e-41  2.6617087673238606e-42  -3.9601172278615827e-42  2.6561817915170060e-41  -2.0746557999284917e-41  -5.2648226224703166e-42  1.0523559954328828e-41  5.3962956697652648e-41  9.7828430767529847e-38  -1.1159083510694679e-38  4.5264227103180217e-38  -7.3178667438735689e-39  2.8354542781961144e-38  1.0756685380834577e-37  2.6154133862741912e-40  3.4774532669444201e-40  4.1122058405008592e-40  4.0669266972499107e-40  1.3662265318203501e-40  5.3145774687740668e-40  4.0464676872461379e-40  4.0188859051476474e-40  1.1221393531571714e-40  -2.7934713082337433e-40  -2.0505521691742775e-39  9.0949573493218556e-39  -2.7703147232405091e-38  -3.9912900413602665e-40  6.7038893063459192e-39  -3.2534072116410266e-38  6.7634793725563859e-41  9.3109372240177987e-42  2.7838262612403148e-41  -5.4278379668298284e-41  -5.6857340757072501e-41  -1.1524095613904388e-42  4.6325076202869727e-41  -1.3004889451918915e-37  -1.2078116562581353e-37  -1.2176922715442214e-37  -2.1172575619853997e-37  -2.2311305930406818e-37  -1.0311055707180970e-37  -2.9664526532390916e-38  8.4741790642556811e-39  4.6237446411984263e-38  1.6443256805306831e-38  3.3384067260262205e-39  7.2569973992024256e-39  7.5246032755759549e-39  6.0454979220117278e-39  6.2673258414437789e-39  -1.5132759910787050e-38  -1.5706620238255279e-38  -4.9546539821850283e-40  8.9780282850235583e-41  1.9272377516427752e-40  -5.6626035457105937e-40  -5.5533408360928706e-40  -3.2690473974267448e-40  1.0613568036523970e-41  2.8854244669752999e-40  8.6019367811893755e-40  2.5092248364400998e-37  2.2522293447898501e-37  2.5078907306489999e-37  4.1227968574541238e-37  3.7668256654120643e-37  3.6308462199273133e-38  -2.8622930764756210e-37  -8.3047431811635143e-37  -1.2927109723592102e-37  -8.3653344632114156e-37  -6.2244405160031287e-37  -3.5685157216119104e-37  5.1028189273249761e-38  -8.8551653652035950e-38  -7.9207962639719833e-41  2.1836384166660984e-40  8.3991797366591174e-41  2.5071182462035558e-40  1.6446232269075629e-40  1.3285907189000720e-40  3.6987600593444711e-41  4.8083216486703719e-41  7.3791108405891455e-41  2.0435653568316997e-40  8.2097810684656298e-41  8.0917067391057426e-38  -7.4720734396133687e-39  -2.7651993837514005e-39  -2.0592357936073756e-39  -2.1573502839163805e-38  -1.6434551265403637e-42  -1.0625242799332205e-42  -2.7519622596502402e-41  2.3216871941525109e-42  5.8095268446162891e-41  4.7633588704129960e-41  4.8177340617760516e-42  -1.8251124322740160e-41  -8.7967036718056245e-42  -9.6385617114829982e-42  3.1637367643378008e-38  -3.0398710294929970e-38  -4.9837024042548256e-38  -2.0764885157723900e-38  5.8313453349698439e-38  2.1356158760051538e-38  -3.1809868488599277e-38  -3.3739164039625273e-37  -1.1600005749009740e-37  1.5263087047664017e-37  -3.8836762257498369e-37  -8.3647334891662513e-38  -2.0765361037245705e-37  -6.9309845883846934e-38  -1.8471480560803015e-37  -1.5601680357747685e-40  1.3730031371101437e-40  5.7321788275613146e-41  1.5848490918035834e-41  4.6577464524585479e-41  9.6999345602259186e-41  1.3433124867174245e-40  1.1625124559226531e-40  8.8825915842518978e-41  1.0312276540018071e-41  6.3246466548439359e-41  -3.2843136043908310e-41  -4.8836927793234358e-41  4.0992257989022559e-41  4.6047841515787125e-41  -4.1778244450846052e-41  -6.3022659979759003e-41  6.0351299069409322e-41  7.1511010230781594e-41  1.0181933044978286e-40  -2.2750574945367946e-37  -3.3583385807808631e-38  -2.7809844308754881e-38  -9.2486148388390545e-38  -7.5034339058389575e-43  -6.7488375297674570e-42  8.2026778059516703e-40  -7.0986676672318245e-40  -7.3636076496118019e-40  1.1132623908182167e-39  -9.4631363055693922e-40  -1.0830366493755510e-39  -1.1410892215755770e-40  -8.7615463801941943e-40  -4.6483921225862003e-40  1.2347561768513451e-37  6.6095358552363519e-38  1.3527842856793510e-37  1.9016889966399919e-37  8.1635960003100081e-38  5.3604775575695949e-38  -6.1193040126229463e-39  -2.4461108604615371e-41  2.8997597798949155e-41  3.4683235910524310e-41  7.2953575222567583e-41  9.4234008026762763e-41  -5.2998454232828478e-37  2.4436798032325437e-37  1.0055365078421796e-37  2.4210034500617575e-39  2.3111846533216196e-37  2.7659941926115043e-37  2.8664419846628362e-37  8.0165156262094949e-38  -2.3788531952853179e-40  -4.3531279198476004e-40  1.4553029258328886e-40  2.1326959230518168e-40  9.7107357993631161e-41  2.6225966571370139e-43  1.7014693810555007e-40  -9.7607747028350513e-41  -3.9883573029487697e-40  -3.7685426794560489e-40  1.5602783181267930e-39  -4.3608490578743695e-40  -1.1215910085352180e-39  5.4954610742987319e-40  1.8019983250029708e-39  6.2137336210526540e-40  -6.2883279782926852e-40  3.2081053650609261e-40  3.9316123681118841e-40  -2.2544914697142037e-40  -5.5122407721046693e-40  -1.5332328678705481e-39  -1.9273711556304078e-39  -1.0030420976429980e-39  -1.6786354123459203e-39  -5.2720008129934980e-41  -1.4310978253439290e-39  -1.5149496102252343e-39  -1.2336003859944450e-40  -1.8229132121403843e-39  4.1798757606343005e-39  4.4424320125817858e-39  2.7308134224962238e-39  5.4763084954586233e-40  4.5245283119623933e-40  1.3936700214298677e-39  -4.7911003106257913e-42  7.2113684117859184e-43  -9.4167703386566590e-42  -4.5649323956589734e-42  -6.2277805425206627e-42  -5.6979148184971232e-42  -9.1518354572037270e-42  -7.7187100784107020e-42  2.3354255984945463e-42  -4.1735937052897168e-40  -4.9525556062224738e-40  -8.2766154851130633e-40  8.6872574727843192e-40  -7.8732118066379258e-40  1.4156198660878083e-39  -1.0554667303393068e-39  1.6645876549799563e-40  4.6244861722971606e-40  1.8527140143744468e-40  2.6977517705333154e-40  3.5686071326056610e-40  7.2408241951208442e-40  5.8960153380948247e-40  6.4933620063781272e-40  3.2101087423709118e-40  -1.5570699230832171e-40  -1.9893151103278201e-39  8.6091634368301009e-40  -1.9158023270646191e-39  -1.4332250647828916e-39  -8.2558118805660012e-40  -1.1804623505205696e-39  -1.0041215779977832e-39  1.6248661125300506e-40  1.2455910466614227e-40  1.0135801702498303e-40  8.1307055350418886e-41  4.0165542765403310e-41  3.0576805589349011e-41  -5.1368149582214129e-41  -6.5095526777809747e-41  4.9142190537231359e-41  5.5899837279142445e-41  -5.1330071082002390e-42  -9.6205154160419740e-43  -7.3357551669650491e-42  -5.2790161533763572e-42  -7.6533244027559809e-42  -1.8134128644642923e-41  -1.3659370153239677e-41  -9.8409914134155458e-40  -1.2395527280262886e-39  -5.4064571113631734e-40  -4.0975054692746296e-40  -1.6757676418589625e-40  4.4188177712568723e-39  6.7592077339142198e-40  1.1194955760533783e-39  1.0614815557947995e-39  -1.4474299499916581e-39  3.0131045770899777e-40  -1.6349696351122121e-39  -8.0737862120381658e-40  1.7188778818764813e-40  1.6279489528506601e-41  3.3276177985854558e-41  6.9477202447687239e-41  3.8097422616255083e-41  5.4561173617561756e-41  1.3189262418087893e-40  1.6916472960244428e-40  1.3724235025373853e-40  -1.9961438520334053e-41  2.3410566425665348e-41  3.0873041016910380e-41  4.1148951812858637e-41  2.5799620453511971e-41  -2.5198145921353486e-37  6.6209105198464632e-37  9.4330882624062452e-38  1.8082196094818762e-37  -8.3273476655663476e-38  5.2376926432310308e-38  2.5603367128554571e-37  1.9163669332498508e-37  -3.6051645673678564e-40  -8.2113299851924779e-40  -1.0864277877409926e-39  -1.4666718241966498e-40  -5.8967291027682384e-41  -1.0131679553434476e-40  -5.7300434043634324e-40  -4.3512657147336731e-40  7.8341773331351239e-41  -2.5573562472508231e-40  -4.9505771875984785e-40  1.1554834164790529e-40  -6.9851939733966744e-40  -7.9198645310110685e-41  3.4566375155683917e-36  -5.7709132887541159e-37  -1.1098772743459713e-37  9.2737730625427861e-37  -2.1489997421716109e-37  -5.2536442016835084e-37  -5.1687568270854132e-37  1.7247853998290388e-40  -3.4590492742538515e-41  1.1866946874285721e-40  1.5295694199106713e-41  4.3853020821169788e-42  -1.8289679495720793e-41  -4.1007603265413360e-41  -3.1474015084523494e-41  -8.9055971603977997e-41  1.3647827458791711e-41  1.5541405999900196e-37  4.2292277919341492e-38  1.1372235258377076e-38  -2.3892147691484194e-38  2.3937358148345319e-38  -3.0405340039703812e-38  -5.1251556781545640e-39  -5.1020386058927013e-38  1.1996627656362884e-37  -1.7413559422389216e-38  -4.5558878214293710e-39  2.5110963185528290e-38  4.3732011316507742e-38  8.9636433287903736e-40  -7.7572996753494047e-40  -1.3142620036476378e-39  -1.9480005401365103e-39  -6.6938034311153804e-40  -9.5761226439245850e-40  -3.6947628292948065e-40  -1.5583024361815895e-40  -2.1316758565806440e-41  2.8042941670361332e-42  6.1613803269511573e-42  4.2517744894922798e-42  -1.4373531775156905e-41  -2.0726374767785133e-41  4.2931830969108100e-41  -1.3398951078213228e-41  6.9334156987625473e-41  -3.1582969743642774e-41  -1.9631317227357643e-41  -7.4048698293870860e-42  4.5712919288064559e-41  1.6673035446845200e-40  1.1395414593381325e-38  3.3794534394447947e-39  7.5638267248464715e-39  5.8040437454569918e-39  -6.7104728420589337e-39  3.1357186608007624e-39  -9.8946130161374955e-40  -3.1918205359671051e-39  4.3187384687249005e-39  -1.6622475238640358e-38  -1.1447602940279454e-38  -2.3674772356921615e-38  -2.2119042326951513e-38  2.5867982964524408e-38  -4.0016229072254803e-39  -1.0046288906446210e-38  -5.4200422369908615e-40  4.6466496817455800e-39  -6.1590165283671470e-39  -8.3697567309187379e-40  4.8099093246787199e-39  4.7014693572965949e-39  -7.5509141607382533e-41  -2.3210150810094256e-39  1.4685716026730118e-38  -1.7953153743350838e-38  1.7131085474469280e-38  4.7828371778964202e-39  2.2282604212250410e-39  -5.0107708219165365e-39  -7.2576698558838866e-41  -2.8030714556900098e-38  -6.5416207810293513e-39  -1.2267138777246609e-41  -9.2306558455249690e-42  -6.0791872931116964e-42  -7.8797628908838383e-43  -6.4197784826073297e-40  1.2761382462958994e-40  -1.7783053246758810e-40  -2.0013141251934704e-40  3.2911908470319061e-40  1.8630117991001221e-41  1.7695404953753085e-40  2.0996905773844047e-40  5.1617950204349914e-39  1.7806903061867280e-39  2.9640345951745905e-39  3.9187890935911880e-39  3.9376366425247637e-38  4.2608720500755738e-38  2.6209317050515781e-38  2.2513160976525278e-38  6.5595337690519264e-38  3.5781195252012120e-38  5.1229150444437606e-38  1.7851056278383924e-38  1.9126205270270644e-38  2.6352600797190220e-38  -1.0883148157360373e-37  -2.1910865190254276e-38  -1.6638451662136514e-37  1.8543108078673619e-37  -1.8683813679125877e-38  -2.8980298568793529e-38  -4.6597563213525691e-41  1.0667423740251283e-40  5.4646186857199397e-42  7.8791760214680622e-42  5.4831319820369428e-41  2.6263783315334260e-39  6.9166129032200837e-39  7.7890699248220697e-39  4.8144251635661843e-39  1.2274615949768739e-39  -2.1829097254268422e-39  5.5166437884642631e-39  4.2554580886949402e-39  6.1255363365001038e-39  -8.9218830874745161e-40  2.3276724647907666e-40  5.4793029693695170e-40  4.5450202113766789e-40  3.2729397154309340e-40  1.7821722464695860e-40  2.9238137374293662e-40  7.4632782519922054e-41  -2.9029479868479392e-41  -3.2206893653524603e-40  -4.9901014647649726e-41  -6.5636407956444512e-41  -9.1634711939307254e-42  6.5087671683804999e-41  -4.9777496766109661e-42  -1.76