<?xml version="1.0"?>
<VTKFile type="UnstructuredGrid"  version="0.1"  >
<UnstructuredGrid>
<Piece  NumberOfPoints="7206" NumberOfCells="32951">
<Points>
<DataArray  type="Float64"  NumberOfComponents="3"  format="ascii">35.29422912211865 13.2232571463952 13.2240134562381  36.1317993264711 13.18039648651801 12.80543740680542  36.23044890240021 13.57154248027585 13.28569523582619  35.82533471286109 12.96050559272932 13.28637620940802  35.60069373572865 13.44314804018389 12.7430746536355  35.69934331165777 13.83429403394173 13.22333248265628  36.10445750119688 14.44533092148826 13.22265150907445  36.00580792526777 14.05418492773042 12.74239368005367  35.90715834933867 13.66303893397257 12.2621358510329  36.35644030360353 12.69775403906344 13.34873896257793  36.82065527882757 14.70724381072298 11.77208122874694  35.95667240113505 15.14332609287119 11.06510919625685  36.38838726446482 14.95211635620788 10.99255675399395  36.06241542111663 14.59409182667349 11.30339300904417  36.714912258846 15.25647807692069 11.53379741595961  36.60916923886442 15.80571234311839 11.29551360317229  36.28264424448324 15.50135062240559 10.75427294120662  35.30417556340569 14.48093984262399 10.83470478934141  35.63014740675388 14.83896437215839 10.52386853429118  35.95611925010207 15.19698890169278 10.21303227924096  36.8985710144043 13.49016952514648 14.60649967193604  36.62750565900392 13.09396178210496 13.97761931725698  37.00492310281714 13.67711484957864 13.91785679495939  36.48240051261743 13.62237425662879 14.3317153959857  36.06623001083057 13.7545789881111 14.05693112003537  36.73385774741676 13.28090710653712 13.28897644028034  36.21133515721705 13.22616651358727 13.70283504130665  36.58875260103028 13.80931958106095 13.64307251900906  37.11127519122999 13.86406017401079 13.22921391798275  34.17594875092542 15.12032090524468 12.77623294834007  34.56001714271669 14.65363727517122 12.83572479339396  34.79000284885474 15.17998020237643 13.08149742050059  34.82328215528091 15.08008868652581 12.37450752300827  35.4706155596364 15.03985646780694 11.97278209767646  35.20735054707218 14.61340505645235 12.43399936806216  35.43733625321023 15.13974798365756 12.67977199516879  35.40405694678407 15.23963949950818 13.38676189266111  35.17407124064601 14.71329657230297 13.14098926555448  34.94408553450796 14.18695364509775 12.89521663844785  33.36344146728516 13.88376045227051 11.69579982757568  33.97195719201962 13.97733653084523 11.58633438271373  33.84515665491025 14.3529712011028 11.47212949913829  33.7019071431915 14.10936654106862 11.76649919670909  33.77674102783203 13.9953351020813 11.22126531600952  33.63349151611328 13.75173044204712 11.51563501358032  33.50669097900391 14.12736511230469 11.40143013000488  33.64994049072266 14.37096977233887 11.10706043243408  33.90354156494141 13.61970043182373 11.33547019958496  34.04037281909784 14.33497262986673 11.8371985658425  33.42176055908203 16.44243049621582 14.11201000213623  33.21274714062456 15.69127919378987 13.83518408862301  33.5676146864382 15.83377674112371 13.94142540409869  33.18356279919389 16.00496461096516 13.67384909716793  33.4509449005127 16.12874507904053 14.27334499359131  33.48012924194336 15.81505966186523 14.43467998504639  33.59679902786887 15.52009132394842 14.10276039555377  32.94536503930576 15.5674987257145 13.23568819219962  33.32941692655007 15.39631085587305 13.50326449913039  33.71346881379438 15.2251229860316 13.77084080606116  32.97975158691406 14.44690036773682 11.6961498260498  33.62940339137218 14.73159883437097 11.94647753330116  33.43418722718459 14.74959740560704 11.58140846659696  33.51006220300595 14.39093649880177 11.76667419594615  33.09909277528029 14.78756270330601 11.87595316340482  33.31484603881836 14.40893507003784 11.40160512924194  33.21843396364652 15.12822503887521 12.05575650075983  35.74426616764167 15.43837425691065 12.32453796704189  35.78753653041665 14.7425936946476 12.59771680337546  36.06118713842191 15.14111148375131 12.94947267274088  35.75425722399048 14.84248521049822 13.30470670086778  35.7109868612155 15.53826577276127 13.03152786453422  36.01791677564694 15.83689204601437 12.67629383640732  32.59550857543945 13.26179981231689 12.80123996734619  33.12847470650057 13.25562708504478 13.16715857661171  32.74917192572681 13.39671664641022 13.0942210116573  33.13929263444422 13.58211325595499 12.90420487891987  32.97481135621321 13.12071025095146 12.87417753230061  33.68307669344897 13.90242669959308 13.00716979049356  33.29295598473158 13.71703009004831 13.19718592323098  33.51859541521797 13.44102369458956 12.97714244387429  33.35411413698696 12.97962068958603 12.94711509725502  32.90283527601417 13.53163348050354 13.38720205596841  34.71918106079102 12.31000995635986 11.3306999206543  34.94297078957463 12.47662540603807 12.27314055330994  35.17804009338008 12.90346472408013 11.99370821852735  34.7000501910574 12.90275337679891 11.62393967037192  34.46498088725195 12.47591405875686 11.90337200515451  35.19717096311369 12.31072130364108 11.70046846880973  35.67516086543636 12.3114326509223 12.07023701696516  34.68091932132378 13.49549679723797 11.91717942008954  34.44585001751834 13.06865747919591 12.19661175487213  34.21078071371289 12.64181816115385 12.47604408965472  33.12164880635175 12.63464075203502 13.98209989841096  33.59167891910359 12.4678421383891 14.74859708123019  33.43932584746325 13.20866292473296 14.27019984013926  32.97454532493416 12.95350810993272 14.63027961263471  32.82744184351657 13.27237546783042 15.27845932685846  33.90935596021509 13.04186431108703 15.03669702295849  33.29222236604566 13.52753028263065 14.91837955436301  33.75700288857475 13.78268509743089 14.55829978186756  36.46255639001222 14.57628736610562 12.49736636891069  36.09341845604245 15.14121234361347 12.38789502286871  36.14563541923199 14.87355013926496 11.8724316632117  36.76843831563804 14.97490601507149 12.28754458840394  36.41033942682269 14.84394957045413 13.0128297285677  36.7162213524485 15.24256821942 12.80300794806095  32.71443939208984 15.84677028656006 14.19359016418457  32.74448173150832 15.20248878458098 13.94424612335149  32.8299022156978 15.70713450613728 13.7146391781921  32.42007446289062 15.68582010269165 13.97422027587891  32.12570953369141 15.52486991882324 13.75485038757324  32.4501168023091 15.04153860071257 13.72487623504582  32.53553728649858 15.54618432226887 13.49526928988643  32.85994455511628 15.0628530041582 13.46529513735901  32.77452407092679 14.5582072826019 13.6949020825184  31.99317932128906 14.81437015533447 13.54699039459229  32.47822730645949 14.3069385335739 13.32764608673039  32.36222236261183 14.22045362451628 13.75272114089909  32.38385169610793 14.68628871896819 13.62094623855534  32.08755493164062 14.43501996994019 13.25369024276733  31.97154998779297 14.34853506088257 13.67876529693604  31.94992065429688 13.88269996643066 13.81054019927979  32.06592559814453 13.96918487548828 13.38546514511108  32.18193054199219 14.0556697845459 12.96039009094238  35.71336740486923 15.11842268474986 11.09290718845871  35.38739556152105 14.76039815521547 11.40374344350893  36.03989239925041 15.42278440546266 11.63414785042437  32.4269905090332 14.46195983886719 12.2646598815918  33.00326724341383 14.49569305176862 12.19139639518451  32.90944094946852 14.18974765534528 12.49161640784931  32.7268867044734 14.5032227873338 12.47565142295551  32.88592529296875 14.14095497131348 11.9963698387146  32.70337104797363 14.454430103302 11.9804048538208  32.60954475402832 14.14848470687866 12.2806248664856  32.79209899902344 13.83500957489014 12.29658985137939  33.0267828999136 14.54448573580042 12.68664296431922  33.06809997558594 16.14460039138794 14.1528000831604  33.0972843170166 15.83091497421265 14.31413507461548  33.96440124511719 12.78656005859375 11.64832019805908  34.63429641723633 12.78146505355835 11.16082000732422  34.3417911529541 12.54828500747681 11.48951005935669  34.25690650939941 13.01974010467529 11.31963014602661  34.32266028322049 13.14102842791586 11.78274980907431  34.54941177368164 13.25292015075684 10.99094009399414  34.61516554750271 13.3742084739974 11.45405975704184  32.78815078735352 16.02421951293945 11.50376987457275  33.48803098041425 15.73758413322154 11.47000294524017  33.46088011932791 16.45759911716649 11.3474856564568  33.11126518249512 15.96381998062134 11.08834505081177  33.43437957763672 15.90342044830322 10.67292022705078  34.16076031238865 16.17096373744857 11.31371872712421  33.81114537555585 15.67718460090342 11.05457812147918  33.78399451446951 16.39719958484837 10.93206083269581  34.1336094513023 16.89097872139353 11.19120143834085  34.18791117347499 15.45094875350362 11.43623601590758  33.7679179339127 16.04939265601078 12.03968758483755  34.1819299622002 15.28563482937415 12.10623448212382  33.69719135728597 15.12427297205994 12.41599472454995  33.76193672263792 15.88407873188132 12.70968605105379  33.70317256856075 15.28958689618941 11.74599625833371  33.28317932899847 15.88803079869658 12.34944782726368  33.34792469435042 16.64783655851795 12.64313915376752  33.26406860351562 13.11960983276367 12.17650032043457  33.52325908036707 13.8930935759318 12.35148480903462  33.65222071130673 13.7272912313152 12.00684944313853  33.4735726484823 13.51101826617838 12.59183505546406  33.31375503540039 13.50168514251709 11.93615007400513  33.8617247562734 14.11869966472991 12.42218417816803  35.64133071899414 16.44676971435547 13.31229019165039  35.82962374732054 16.14183088018492 12.99429201402885  36.14499473571777 16.24039459228516 13.23301029205322  35.83563041687012 16.12356472015381 13.47280025482178  36.02993011474609 15.80035972595215 13.63331031799316  36.02392344519652 15.81862588598326 13.15480207720024  36.33929443359375 15.9171895980835 13.39352035522461  36.64865875244141 16.03401947021484 13.15373039245605  36.33328776404417 15.93545575811461 12.91501211443169  33.94692870358094 13.27212243037347 12.74160694007414  33.73742465861426 12.88071399695876 12.32627220504465
[...]
<PointData  Scalars="c_HbO2"> 
<DataArray  type="Float64"  Name="c_HbO2"  format="ascii">1.2385645768785231e-48  -2.0396234239099345e-49  -2.5845059358666295e-49  4.1692374474617427e-49  -2.5879736861522000e-49  -3.1869982540721467e-49  -1.2334677302355153e-50  -4.0326192105228092e-50  -7.3618656789748045e-50  1.6585993265038908e-49  -1.7370986477415042e-52  -1.9011095569033255e-51  -3.9624594817127379e-52  -1.2759447063468840e-51  -7.7124132472737122e-52  -2.3027163323296236e-52  2.3064961186607714e-53  1.4491320661739660e-51  -3.6809804157952564e-52  1.5083708157584596e-53  -2.7337395598482271e-49  -2.0372247327718984e-49  -6.2540220084671431e-50  -3.6908049530254673e-49  2.1374058118246059e-50  -1.5298237142098375e-49  2.6869696571284896e-49  -1.5706707751055406e-49  -2.1211069488600460e-50  -1.0683533195690090e-49  -2.6248624270326654e-49  -2.0040062141638936e-49  -1.7845225791996874e-50  8.2643385297712112e-51  -4.6665806494919930e-50  -1.0937984719493831e-50  -4.9401578319641121e-50  -1.6739782694577431e-49  -2.8672239679470068e-49  5.1138509685989671e-50  2.0114925254221577e-50  2.3760870850345811e-50  7.9853234902583659e-50  8.0415184146419868e-51  8.4129227530495613e-51  3.0904481409413725e-50  -5.2568029480867888e-52  4.8813896343126272e-50  -3.5606808170379265e-51  1.7599646202450541e-50  5.0874939392307320e-50  3.3909841851390818e-50  3.6179517354438279e-50  4.0483685000840604e-50  -8.3836552718119257e-50  -4.6860201461193172e-50  -6.0735813984905001e-50  -1.2856942828269675e-49  -1.3728426378304036e-49  -2.8920712844431440e-50  7.9782434927560032e-51  2.0766969269442188e-51  1.1715919707257569e-50  8.0527259194841523e-50  1.2114108110192017e-50  3.6243216271592480e-50  8.1365866854354778e-51  6.9768330687426241e-51  6.5510368474551048e-51  -4.9713661575512865e-50  5.0969719702104264e-51  1.6776658857871737e-51  2.7781862638246840e-47  1.9337218915759145e-47  2.5161296467096493e-47  2.9457750169995070e-48  1.9349928794797623e-47  9.5868560949117179e-49  5.1673229663715289e-48  4.6184525492359728e-48  5.5028859675702410e-48  7.1685532828196983e-48  -7.1213103206107994e-50  -6.5197852555620015e-49  -1.5183802073188251e-49  -4.2139708919204258e-50  -2.4214391682070652e-49  -1.9367373463540989e-50  -2.3697884103192750e-49  -8.5225801470310886e-50  -2.5849527979688968e-49  1.1383572219675829e-49  -3.1670573080659114e-46  5.4056609374746411e-49  -6.7420642409414903e-47  -6.1427267059612037e-46  -1.9370564687930623e-46  -2.6327880802919197e-47  -7.2983673058821048e-47  -3.6870310382450351e-47  2.1860447984418014e-50  5.1333555195438070e-51  6.0676920949950689e-51  3.0646850011026295e-51  1.0632719629514164e-50  1.4820933284020471e-51  -5.3443962322556043e-50  -6.1472613171919159e-49  -1.3732229018650159e-49  -1.3605895264664928e-49  -1.6045285723065526e-49  -1.2150388126417719e-48  -1.2710374903929959e-49  -6.6068690244685334e-49  1.1066467613634949e-48  -1.6098542037708708e-49  8.6600672474746186e-49  1.8547973320247374e-47  -1.4131961373605238e-48  9.3889749626260321e-48  9.8919946991972296e-48  2.5425144689370178e-47  1.7013149183219489e-47  7.7100733186023051e-48  -1.0523474963642777e-51  1.4903367779888708e-52  -8.2415836600650338e-52  -7.6855584419004922e-49  -3.4215487079958304e-50  -8.6257805848677632e-49  -4.5797142959453321e-49  6.3549470885570475e-50  9.0376438590239054e-51  -8.6634193598883451e-49  -1.6278725960789983e-48  -6.7267876642466259e-49  7.3191922763725962e-51  1.4467649584507189e-50  -2.7673627553251088e-49  5.6884313601601738e-50  -8.8586702127845758e-50  3.7181741081888469e-50  2.8792754580196660e-50  3.6616909905833016e-50  2.4742064927734819e-50  -4.0211428693758349e-52  1.1995608331220283e-51  -1.1995402241875565e-51  -1.7308973615243294e-51  -2.6243364745600274e-52  1.2900903923615067e-51  -9.2591274745940478e-52  8.0819662934013533e-53  -1.4440502815053468e-53  5.3611587022644792e-51  2.9137644911632928e-51  9.6204836219103064e-51  1.7067480310965896e-50  2.8118891086199124e-50  3.6068661967528759e-51  3.6164927705665578e-50  2.4549758409712886e-51  -9.9953670108069824e-49  -5.0107145739026466e-49  -3.0631661854723927e-49  -1.5313330944074563e-48  -2.8924628173157490e-49  -1.9046190672022090e-49  -1.1244969936495470e-51  -1.4642848266704980e-51  -1.6724240096045915e-51  3.8231646680467878e-51  3.9815833734549187e-51  2.7676379864113806e-51  9.0520965114741718e-54  -1.2279812374062570e-51  -9.7164517119361858e-53  9.0236489113934429e-49  -3.7597575009869902e-49  -8.2337365758882231e-50  2.5691136526052527e-48  1.9610836164337275e-49  1.2035350768835089e-47  -1.6543677971304707e-48  3.4894153656299532e-47  1.0500740095326950e-47  5.7388154356665399e-48  9.3463474710600766e-49  -3.8393256282568300e-49  -9.4332736329084779e-49  -1.6783808631293656e-48  -9.2121039825299563e-49  -1.4276865141961029e-48  -1.3694938900364460e-48  -4.9318680431520986e-51  -8.2822949849918617e-52  -9.3513516087155602e-52  -1.9871315983321172e-51  -6.9720825826310455e-52  -1.6543079719353397e-51  -9.7877841679701395e-52  1.6228116723514416e-48  1.5621336295717139e-48  4.5181412104706537e-48  -4.1401199172137650e-50  2.3856116460100363e-48  7.1557621750000939e-49  -8.5665994252303438e-49  1.0352931401428347e-48  9.5550323193206817e-49  1.1530054819830692e-49  1.9326730064913394e-50  1.3883429917110130e-50  -4.4504069179517419e-50  -3.8356282104393091e-51  5.5290664391770593e-51  8.7497608340957243e-51  -8.2357466542560363e-50  -1.4741664540076678e-50  4.9946221543560208e-49  1.1554614198820142e-48  -1.0549658036514364e-49  2.3984286672240975e-49  1.9473879969541177e-49  -5.4620181333111168e-50  3.4319216620771844e-49  2.8352332530677203e-48  6.5891162044492582e-48  5.0709096038012833e-48  -2.6933724406844025e-47  -1.9076740326665939e-47  4.6940483929920744e-48  8.8454292909919524e-48  2.3076145303211234e-48  1.1673008010103947e-48  9.5345185526235532e-48  1.0706883571406089e-47  7.0178703969794522e-49  -3.8078381167957000e-47  -4.2105813164238882e-47  1.0552173369765117e-48  -4.5615049454592802e-49  1.5418121542560141e-48  -8.1065014167953169e-49  -1.0291022128666814e-49  1.9209830320132016e-48  7.8626241047300820e-49  4.4003489605449360e-48  2.3007988503182322e-48  2.1018921904264301e-48  9.7282869027115009e-49  -3.4192553850826126e-49  1.4047281306602611e-51  -4.5495393286208016e-52  -3.8398008894856466e-52  5.9862020883468642e-52  1.1857231722040965e-51  6.5023195021379646e-53  -2.3751714714287496e-52  1.1450666567908501e-52  6.6079168941524778e-53  -4.7174064146508903e-52  -2.9560715644796460e-52  2.7067477280641236e-51  -7.0230341131399365e-52  1.4556071439053851e-51  1.7777772865992252e-52  1.1094356919686523e-50  7.3453526519520280e-50  3.3240464354371929e-51  9.1529963043745110e-52  8.3472763141722038e-51  6.3918342764312587e-50  8.0910153499478521e-50  -1.4124260262674446e-51  -2.4451858098432842e-51  -3.8715418720740461e-46  -2.3469641961768239e-47  -1.6192276009986514e-47  -5.5328035724291618e-47  -2.2378948790978377e-46  -2.6699805240864716e-47  -4.7144171742376504e-47  4.4763980477682391e-47  4.3122772984307519e-47  6.9281854896247713e-49  1.1975952681596299e-49  9.6608903865658475e-49  3.0882043623064457e-51  2.4124935988262872e-50  2.3077384667463642e-51  8.7431047938079738e-51  -2.3161383398431113e-49  -1.4714258205906789e-49  2.4438296201351740e-49  1.8083125436305714e-49  7.2645267413280344e-51  -2.9763710106766988e-54  -5.9432628022103529e-53  -2.0159404388289083e-53  -1.1359119964051946e-53  -1.2160339726524574e-54  -2.7253912569226021e-52  -2.7072513817139930e-52  -1.1806455477905823e-52  1.0830434932385482e-52  1.6726455360930755e-48  3.7776434981678445e-49  6.3398931026000213e-50  -3.2176580096897291e-49  -3.2165439092895040e-49  -2.4588195852477851e-49  -3.1557172121506799e-49  -3.1649549638414382e-49  -1.7522843556295493e-49  -1.9304059693144567e-49  -3.5203600798500910e-50  -2.0487823989871843e-50  -2.9250100772085892e-49  -6.7795363203887967e-49  6.0722100582633053e-49  1.5146653243124029e-49  -7.2653520802324247e-50  -2.3600759502436546e-47  3.1749874664247788e-47  1.3009074184279609e-47  -6.1608689803044609e-48  2.6154364623342366e-47  -9.1187852402427926e-48  8.1106608404424703e-48  9.0174902533205441e-48  6.4979038736334183e-48  7.8946837424136042e-48  4.4466722294749172e-48  1.8703604602938532e-48  3.5431214610233875e-48  1.4954255556693194e-48  -4.3137490224106815e-49  -1.2468900221834090e-48  -2.5493840363184079e-49  -2.7834805976874088e-49  -6.6347885970808843e-49  -1.8609861598741834e-49  -3.4304839240072287e-49  9.7222937013793069e-51  6.9413572130018874e-51  -7.5999046514316293e-52  -2.2699208925199153e-51  -9.3794086011495405e-51  -1.4019977777450714e-52  4.5549152970848396e-51  -6.6995319930432635e-50  -2.6861651772628143e-49  3.0188356299341166e-51  -3.9317053601405527e-51  -5.4502510499180436e-49  -7.8352011868412459e-49  -7.7826611681811980e-49  -3.0744877679534996e-49  -4.6760677505645021e-49  7.5664864195913247e-49  3.1307781328438974e-49  3.8815174510746069e-48  -3.7713012627320486e-49  -2.2976307105313548e-49  -1.5379398835702991e-49  -3.4174795978576789e-49  -3.3474839322839386e-49  -3.4201985468582546e-49  -1.9566625498252920e-49  -3.5965420437175893e-49  -1.7240641980398342e-49  -2.7110673065153638e-49  -7.4620232084105225e-49  -3.1368320968770268e-49  -2.0192523214347099e-49  -1.8627185205821477e-49  4.7327833570623709e-48  1.7821251862344268e-47  1.6636391258839826e-48  4.2202545967751530e-48  -5.4467132743111295e-50  -2.6202477956199425e-49  -7.2121873199456238e-50  -4.1695802007357503e-49  2.2559994008141351e-49  -5.0353434822017123e-49  -1.0979342237296341e-50  -9.7031520391344840e-50  -2.8928640238070343e-47  1.4389475922237034e-47  -3.2461887397673091e-47  1.0781972791538745e-47  -5.3010367036015051e-49  -2.6208831415022095e-49  -8.4304961679398702e-49  1.4080041511047574e-47  5.8852671138242510e-48  -1.7198513444068838e-47  -3.9310726133991957e-48  5.7762330481399411e-50  7.3344146464241799e-48  1.8727371003598671e-51  -1.2079518918813552e-51  2.0665483523485375e-51  -1.0187640123460788e-51  -4.4198924081906415e-52  -1.0222783850119819e-51  8.8223089854326341e-49  1.1276812615327054e-48  5.9659580282834393e-48  -4.9713031193214525e-49  2.8971409857004953e-48  1.5477059919432283e-48  1.3490760969826824e-47  -3.8747308870858917e-50  5.7982280729538572e-47  2.5108556904087246e-48  7.3156006811138542e-48  1.8343237859439560e-47  -4.6673688982044250e-49  -1.5825724082157644e-50  -1.0325887952593314e-50  2.9205613057182756e-51  1.2448163789058249e-50  -1.3843764136881003e-50  7.1076485404699651e-51  8.7230622326835887e-51  1.2919150988307486e-52  2.1493288348150393e-51  -7.6932584478945701e-52  -4.8732470026344743e-52  -3.8560500485912458e-52  -3.6081089485049809e-52  2.5050930889239290e-48  -1.0284726997681056e-49  -6.5793255403521752e-46  -4.5541620798113363e-47  -4.6704774739730917e-47  -3.4815489046390000e-49  -1.6585597039108059e-49  2.9935440980088685e-50  1.2398049796039452e-50  2.6561730993478946e-50  -1.0726379887534604e-49  1.8159783000475477e-50  5.1054469183302458e-51  -5.2704266788808460e-52  2.4865580095299747e-50  -7.2963864824930205e-51  8.6169705724306069e-51  2.1326479906697492e-50  9.5423147092062412e-51  9.8003568775363906e-51  -2.1284149803759164e-50  1.2558109407396806e-50  5.8344586728745040e-48  -1.4269976010099578e-46  -6.5349978302198656e-48  2.1366690222226586e-47  -1.9700397071598520e-53  -1.6204445066040721e-51  -3.5659517425983036e-53  -5.4414918024181609e-53  -8.3028024686622422e-52  -6.1230235667737163e-53  8.8734838818498255e-54  -3.4714104385897135e-53  -1.5040293699695090e-49  -8.2154227219713908e-50  5.3345770226976215e-48  8.6224149447071560e-49  -5.7397549569077692e-51  6.4535276370352901e-51  -1.1906022332961064e-51  2.6191795649972127e-50  -9.4092323485259080e-51  1.1048731334376804e-50  5.3223468728577963e-50  -2.2860547469969304e-49  -7.5158171880925043e-46  -6.1160295906931052e-46  -1.8617271614876506e-47  -2.9081912095682649e-46  1.7681137056669676e-52  -5.6798407157083589e-53  -1.8990421614028955e-52  7.0577097024984937e-54  -4.9773741028342881e-50  -1.0837953973327121e-49  -1.4611637207112806e-49  -7.2047605377768931e-47  -7.2614174260781827e-52  -5.9153983903025629e-52  -8.8672136628815937e-52  -1.9238983380416557e-49  1.1054054927825393e-49  -3.6784054779297704e-49  -7.3180827635251195e-49  7.9368750796647775e-50  3.3163500332215791e-51  -1.5046315624713085e-49  -2.9675056778586920e-49  -7.0931748551212382e-50  1.6171050393127946e-51  1.1852970959226184e-51  1.9383339878080346e-51  -7.4134824156185943e-50  -3.4669144642379342e-50  2.8547987850221441e-48  1.5211852352718630e-47  2.3064679270275567e-48  -6.8532391367032670e-47  -8.8332697490851098e-47  9.5124325467993725e-48  -4.9345355688619836e-47  7.7528640355016879e-48  -2.8250738710544224e-51  2.3194399056989690e-50  2.2936400389698285e-50  -7.2791401426606266e-51  -8.8183836365284003e-51  -3.3986855602737946e-50  -1.3462822852895869e-51  -1.8113255881217569e-51  -1.0070450871833833e-51  1.6022095592536259e-51  -1.1715943691252688e-51  -1.0077501233010142e-51  2.7139955357062551e-50  -2.6060171595225965e-50  2.6730664684998355e-51  7.9790012764913451e-47  -5.3629666942754169e-47  6.4458642854955992e-47  3.0268493095473904e-47  -1.3079250931103554e-45  -4.8148981526115737e-46  -5.2343520683573687e-47  -1.2706786284520638e-46  -1.0651491888013888e-45  -5.4933408355996341e-47  -7.7492358084197939e-47  1.1191041436547512e-50  -6.5611318954732066e-50  -7.0477086432518008e-50  3.5651522841517735e-51  -1.9728908867837169e-50  -1.3335537895686023e-51  1.2530092261396071e-51  1.9673616364388025e-47  2.5614412799022866e-48  -2.1964742193143498e-51  -2.3954102440546852e-49  -6.0200177355427358e-49  -3.1132165604335138e-50  -5.7352483268703843e-52  1.2009066155817561e-53  -2.7395314888750546e-49  -4.4693994598462524e-49  -1.1474151073132978e-49  -1.4387273124844066e-47  -1.3496732351886029e-46  -1.3893746662184631e-50  1.2718507440918268e-50  7.6281734487535168e-51  -1.8400224337379813e-50  1.4845969416335041e-50  -1.6535626869636122e-50  -6.3599010563181170e-49  -3.0418634976132616e-52  -1.9192108500070013e-52  -4.1862380507369127e-52  4.9501305668422481e-53  1.0328091654226039e-53  1.0244868910051994e-53  -3.9533216278422763e-52  1.7726872601909774e-52  -9.8288483188397453e-52  1.9580140314493533e-52  8.5443287973976200e-51  1.3852979730723640e-51  6.3775707974695021e-47  9.3541891299591577e-50  4.9148693533433513e-51  2.5035760422786257e-51  1.7544006615390761e-48  4.4035464512776398e-51  -7.3208416466883330e-53  9.5781057308381194e-51  1.5584525172489781e-51  5.8351879850173009e-50  1.2156336622452148e-50  -3.8200815115079816e-49  -1.1009656919729607e-46  1.2770879162377776e-48  5.8317646996563787e-47  3.9090690827149836e-47  2.9929296224171848e-48  4.8677754124041469e-48  -1.5958132671960963e-49  -5.7470758928793194e-50  -4.2335257483711847e-49  9.1900273102049393e-49  1.3097132689994381e-47  7.8260762949527420e-48  -4.6104560093361663e-49  1.3536915870863148e-48  -1.7568290316020435e-49  -6.4394965560368180e-49  -2.4172341537166078e-49  -2.1824113938599332e-49  -1.2479202876153750e-49  -2.0629418368735244e-49  3.7527219474168944e-48  1.2739850413939954e-48  -1.7087713681710005e-49  -1.1226634990317545e-49  -1.2164062476740675e-51  -3.4299754729616315e-49  2.1211365141722174e-49  3.5262128132773018e-48  1.1241670693605003e-47  1.1371300464165465e-48  2.0175687936599465e-49  3.2179382075971095e-49  -3.0099765781357653e-48  2.5164530766411306e-49  1.2354701886442843e-48  -1.0340615963932028e-48  -3.1216144244904037e-49  3.7391752771563209e-51  -5.4313322933128792e-52  -2.3868961399933270e-49  1.3819091227090825e-50  9.7290539850653405e-51  4.5486160118729482e-50  1.2347166159570678e-49  2.7755282992227703e-50  1.0061215428822758e-50  -1.9291216349504442e-52  -1.0828304168651376e-49  -3.8864304128375599e-46  3.7095388795351140e-50  5.0727290888462327e-50  1.0612910301202514e-50  8.1452616522188107e-50  6.7547933878854628e-50  2.7796530549072394e-49  -1.1711432381010506e-49  5.5261597977054769e-49  -6.5418237637569716e-52  2.6809870547530664e-48  -9.4920101486058245e-49  -2.8219363079681110e-49  8.0100124875293977e-48  1.0425249962140783e-47  1.4242735106937668e-47  -9.2094154548297848e-53  -7.2576608835874789e-49  4.1513680952174830e-50  -1.2141892831233738e-52  5.9347154094107412e-51  -7.1476891613517281e-50  1.1938345794166486e-50  -8.3883455195037757e-49  -1.4459351054956472e-53  1.7197571168130835e-50  2.3993506075518694e-47  2.9734983321871782e-47  2.3137427573862010e-50  -3.6752659628326410e-51  1.9452868160423304e-50  -2.4073026866418925e-51  9.7861196103371083e-51  8.4959327271046916e-51  1.5064946235858139e-51  2.1839918139672538e-51  8.5480038947836185e-51  6.4523992190694783e-49  4.7953633708705966e-49  7.7331730912068059e-51  -1.0138078925062377e-49  -7.4869673296540646e-50  5.9244343846912958e-51  1.0893724487396276e-50  -3.8775599223860328e-50  -4.6020559532507204e-49  -4.0803188183431187e-49  -2.7078858958909408e-49  2.2367146466522707e-49  -1.5786584724023758e-49  1.9465735011958823e-48  3.0958105250153937e-50  5.0811326710328253e-51  1.0809732404552688e-51  1.2794777105711430e-47  9.7898013988998674e-48  -1.8480566731530605e-48  -2.6384110074084540e-50  1.7598027104341834e-48  8.3794285583774916e-48  -2.9097513725457300e-49  -6.8383159786079720e-52  -1.5774409357687431e-51  1.5148069920868873e-47  6.6759571582093774e-51  -9.4556813076697126e-50  -2.8514563064236443e-49  -3.6211286185301212e-49  -1.1711559458458772e-48  -1.6387079698017461e-48  -4.4583801076179556e-49  7.9861729622911230e-50  2.6991257308664840e-50  1.6293193272900198e-50  5.0915625165172404e-49  1.4965798997961594e-50  5.7499600192830114e-49  -3.3609028840586942e-49  2.7504468489984734e-48  3.9653636990763552e-48  7.0025574469268627e-48  1.7219747696944131e-50  6.1845807314698700e-50  6.0526684950896446e-48  -8.2766502593018479e-49  -9.8086967423734947e-50  -4.0282368639907987e-49  -3.5470609662369307e-49  -3.5327902266484837e-49  1.1496262570708523e-49  3.1071284982013535e-50  -1.5036715120898994e-52  -1.6208860551648619e-48  -3.2772895576391747e-53  -9.7156782737609781e-49  -4.2083120453381026e-49  1.1983462559161599e-50  1.0015232743841626e-50  -7.5216159824523120e-50  1.1284053842615077e-51  2.7775020490164839e-48  -7.1672539773808871e-48  -2.3166468111555810e-47  -1.0116574205064539e-46  2.3649920488888772e-47  -8.6697637705616604e-52  1.7257088979888656e-51  2.9281091490264646e-48  -2.9623924260860585e-52  -3.7490317151457984e-49  1.0763187895382016e-53  2.8004942513696622e-53  1.7719071369253128e-53  1.7373009845149075e-53  8.5418416088216697e-48  -2.5717106835917292e-48  -8.9600325761300514e-50  1.2606313971392612e-50  9.1629920023696644e-48  1.6577719445920040e-47  7.2339103346024585e-48  4.0219661418377260e-49  2.6719423877021569e-48  6.4019980504006405e-48  3.1157348402796918e-47  3.8694916510835235e-48  8.0763488653026186e-51  2.7839665416643380e-53  -1.8534823262938674e-49  1.9557808984586270e-51  1.4172163415511861e-47  7.4131283996292454e-48  6.6808875909347205e-48  1.6003179878776208e-47  -3.4395800338679371e-49  1.7919615400181041e-48  -1.6931944296624085e-49  1.1558582994455226e-48  -7.1728504410520421e-53  2.1491454617675422e-48  5.8242892571986419e-47  -2.4083178480731678e-47  2.9618890180838412e-47  2.5916481876317347e-48  2.4067501749623771e-47  4.7675895666274709e-48  4.0757739220170495e-47  1.0219804989270599e-47  3.3570495693583955e-47  -1.7886288644165810e-49  9.0390872868202838e-49  9.7619042797670417e-55  2.8037713696659260e-55  2.0129194900327928e-55  1.1288521103777830e-54  -4.9621608878063097e-56  1.0602557140667339e-54  -1.6364821467447943e-49  -7.3905968559845570e-50  -5.2292780434467443e-50  -2.6325850775581150e-50  -1.0289177684964063e-50  -5.0673218348685958e-51  -2.2113396361280498e-50  -2.8267753465685924e-55  8.8719013942781252e-54  -2.1239774662198408e-54  -1.4755470626081247e-54  3.4436992806110396e-55  1.1546508692855107e-53  2.1428926970520