<?xml version="1.0"?>
<VTKFile type="UnstructuredGrid"  version="0.1"  >
<UnstructuredGrid>
<Piece  NumberOfPoints="6691" NumberOfCells="31269">
<Points>
<DataArray  type="Float64"  NumberOfComponents="3"  format="ascii">17.71081924438477 5.691020011901855 18.23872947692871  18.32393216942745 5.88126401136733 18.15883037796449  17.94963332218666 5.765515284579683 17.91446190928944  17.82904311222572 6.007182316821504 18.07470208262929  17.94726698006668 6.323344621741154 17.91067468832986  17.07592964172363 9.694982528686523 14.60706043243408  17.4594144821167 8.986474514007568 14.31734991073608  17.52177354033021 9.354762424020198 14.98395128494898  17.49163436889648 9.451726913452148 14.3459300994873  17.04370975494385 9.229730129241943 14.57848024368286  17.01148986816406 8.764477729797363 14.54990005493164  17.36613082885742 5.719342231750488 18.8066291809082  17.8933489071934 5.911273171196255 18.90391167136335  17.56009988362386 6.316543329647518 18.64787967042478  17.53847503662109 5.705181121826172 18.52267932891846  18.06569311495707 5.897112061271939 18.61996181937361  17.73244409138753 6.302382219723202 18.36392981843503  17.75406893839031 6.913744427544549 18.48913015994135  18.08731796195984 6.508474269093286 18.74516216087993  18.42056698552937 6.103204110642023 19.0011941618185  18.8632661656536 7.23903399705552 18.44948664628291  18.11936384054145 7.013961452317783 17.52405708385162  18.02276481970326 7.30916135521948 17.81328481965737  18.5773634333349 7.471806139974966 17.79346306282815  18.40526657286014 6.781189309398338 18.18008066730638  18.30866755202195 7.076389212300034 18.46930840311213  17.85066795922849 6.618544524642852 18.19990242413561  18.29146070101621 7.704578282894412 17.13743947937338  18.51697256593238 6.143937023179004 18.22142070837702  18.64191657559148 6.671119053848772 18.7253404040507  18.7383221559945 6.711851966385753 17.94556695060922  18.6133781463354 6.184669935715985 17.44164725493554  18.28032256320104 6.25400727872857 17.6761609716327  18.18391698279802 6.213274366191588 18.45593442507418  17.98203393156556 9.583125937966731 14.84104604965845  17.53619003295898 9.923346042633057 14.46415519714355  17.99645042419434 10.15170955657959 14.32124996185303  16.96820068359375 5.982894897460938 18.28504943847656  17.45773383183021 6.153119759601045 18.09786206340321  17.19814014434814 5.865903854370117 17.93620014190674  17.33950996398926 5.836957454681396 18.26188945770264  17.68767329258461 6.036128716510225 17.74901276683339  17.56944942474365 5.719966411590576 17.91304016113281  17.42807960510254 5.748912811279297 17.58735084533691  17.795778364781 6.423452496039193 17.13982752038139  18.53993034362793 11.10188007354736 17.43795967102051  18.88304730041725 10.33743895859851 16.85500027233542  18.58667774780494 10.77477397294178 16.79621006542624  18.9402551651001 10.9579701423645 17.10866451263428  18.83629989624023 10.6645450592041 17.49674987792969  19.13266944885254 10.22721004486084 17.55554008483887  19.2366247177124 10.52063512802124 17.16745471954346  19.34057998657227 10.81406021118164 16.77936935424805  18.98700256927711 10.63086404175892 16.46691490704001  18.63342515198195 10.44766787233619 16.15446045983198  17.36113481099203 6.448319662502743 18.38708979920896  17.16716575622559 5.851118564605713 18.54583930969238  19.22282981872559 9.237237930297852 19.07364082336426  19.53970203371081 8.741791683755535 18.5920443544578  19.32240257234607 8.618094402871746 19.0115885744285  19.15106735200915 8.921297031961101 18.72881937124247  19.07930488529272 8.605356133624351 18.38399791912067  19.44820976257324 9.296418190002441 18.57683563232422  18.76730537414551 11.26691007614136 16.9340648651123  18.99468040466309 11.43194007873535 16.4301700592041  18.81405277832252 10.93980397553577 16.29231525951804  19.16763019561768 11.1230001449585 16.60476970672607  19.13441296203834 10.73449887604847 16.02235533291282  19.4879903793335 10.91769504547119 16.33480978012085  19.31504058837891 11.22663497924805 16.16021013259888  18.28268890532102 5.696177941567099 17.67994819259228  18.85894795044166 10.88092889161243 15.73540045315207  19.03957557678223 11.37306499481201 15.87325525283813  17.79106988839623 9.889436331459688 14.77228278378871  18.25133027963158 10.11779984540622 14.62937754849818  17.96761743893678 9.014542319353872 15.36084213746388  18.2369137870028 9.549216226793362 15.1491736363036  18.50621013506882 10.08389013423285 14.93750513514333  18.02072887571897 5.966791373497641 17.51449905013622  18.4269628590164 7.086293834700278 19.09886194146507  17.87236424538476 6.923649049944792 19.11868369829429  17.99065955237921 6.933553672345036 19.74823723664722  18.20561326895429 6.518378891493529 19.37471569923287  17.51593896086243 8.461609710244563 15.0775310540835  17.39119529724121 8.104825973510742 14.53714513778687  17.03787517547607 8.336577415466309 14.67206001281738  17.06426048278809 7.908677101135254 14.79421997070312  14.42628002166748 17.66482925415039 17.03511047363281  14.82727567774986 17.34767586591818 16.33617403746241  14.51000720212802 17.13887687633551 16.62793426383857  14.26927995681763 17.68171977996826 16.65006542205811  14.11227989196777 17.69861030578613 16.2650203704834  14.35300713727816 17.15576740215338 16.24288921226387  14.59373438258855 16.61292449852063 16.22075805404433  15.60026953767116 16.88166551503813 16.63148621666273  15.44547459745757 16.76242574110968 15.99539279535193  15.09700196012986 16.74729500677938 16.42612213535353  15.42265150703684 17.14322410311332 15.6740911620404  15.20335290389614 17.3391642867428 17.40542647540932  15.20942611451333 16.84544765709337 16.99064983231387  15.77991495991001 16.91451961313138 17.26088374432253  15.95956038214886 16.94737371122463 17.89028127198234  15.38907153675218 16.87830175518662 17.62004735997368  14.81858269135551 16.80922979914862 17.34981344796502  14.67865668418515 17.55169649848732 15.49085823895074  14.81696033477783 17.51399993896484 17.70725059509277  14.81777151306667 17.16161486905673 17.5285320215289  15.38826035846335 17.23068682509474 17.79876593353755  15.01327477966932 17.27324738459426 16.83329834514777  14.62243135651149 17.2370295266495 17.19246196079892  12.36760997772217 19.15498924255371 12.99787044525146  12.44733188615271 18.55369389699485 12.70125050944275  12.46593664155432 18.47067368672874 13.03428550166077  12.65532682404943 18.78272832082298 13.05940051478333  12.17821979522705 18.84293460845947 12.97275543212891  12.15961503982544 18.92595481872559 12.63972043991089  11.98882961273193 18.53087997436523 12.94764041900635  11.97022485733032 18.61390018463135 12.61460542678833  11.95162010192871 18.69692039489746 12.28157043457031  12.9430436703767 18.41046739909224 13.12093058431519  12.9086799621582 18.55488967895508 14.44544982910156  13.21206550438272 17.96212861979647 13.59123034324925  12.79497367712894 17.97496971883433 13.85513019009922  13.19488365027347 18.03433975972789 14.25348996564244  12.92586181626745 18.48267853902366 13.78319020670838  12.50876998901367 18.49551963806152 14.04709005355835  12.10886001586914 18.43614959716797 13.64873027801514  12.52595184312292 18.4233084981301 13.38483043116516  13.48108733838874 17.5137898405007 14.06153010218331  12.6555980528256 17.86604356934304 13.23009403049386  12.23850622557183 17.87888466838091 13.49399387734384  12.36815243527451 17.32161973959385 13.33925747667254  12.92461988683163 17.41770479004727 13.70039378942792  13.59317564251293 17.2117651281236 12.71767065687377  13.53713149045083 17.36277748431215 13.38960037952854  14.25630971197997 17.15802004086477 13.5167639645413  14.02404917559636 17.91277838416228 13.41526452652944  12.48904925358651 17.99595027312194 12.89650795469228  12.01194222476412 18.05615656075844 12.80986287203786  11.99333746936251 18.13917677102456 12.47682787981984  12.03505483679631 17.58143314715165 12.67208532506938  12.17849102400322 17.92624985697954 13.14344894783944  12.04884481430054 18.4835147857666 13.29818534851074  12.96667046468875 18.79693071512167 12.76158600836983  12.67895361836148 19.16919163685241 12.70005593883797  12.47095868046475 18.94015721302428 12.34190593349739  12.99029725900079 19.1833940311511 12.40224143242448  12.85178372318936 19.12197712879577 13.10657058346077  12.82815692887731 18.73551381276634 13.46591515940613  13.47095931734331 18.65605874392601 13.62865671936844  12.51666718947563 18.39456461447223 12.06782544981842  13.26810965644481 17.81111626360791 12.91930062059448  12.98066403889372 17.26669243385872 13.02846406677315  12.55838455690943 17.83682099059932 12.26308289506795  12.81411523965462 17.39659913763762 12.69487799097157  12.20160363603541 17.45152644337275 13.00567140087096  12.71327018737793 19.06056022644043 13.81089973449707  12.23823499679565 18.79556941986084 13.3233003616333  12.41106510162354 18.7483549118042 13.7298150062561  12.81097507476807 18.80772495269775 14.12817478179932  15.03370952606201 8.509059906005859 19.34230995178223  15.40125365846894 8.595114111875347 18.8455539932794  15.42934842699311 8.428497672056011 19.18261396794981  15.48029429496468 8.987807811297241 19.30976792741891  15.00561475753784 8.675676345825195 19.00524997711182  14.97751998901367 8.842292785644531 18.66819000244141  15.45219952644051 9.154424251116577 18.9727079527485  15.92687906386735 9.466555716588621 19.27722590305559  15.87593319589578 8.907245577347393 19.1500719435865  15.82498732792421 8.347935438106164 19.0229179841174  6.495824813842773 17.85296058654785 14.45977020263672  7.012566339295508 17.39897668657346 13.90512368870374  6.73794747523606 17.65267217454953 13.81942365360852  6.508850824158789 17.49452245531125 14.1276936311781  6.724921464920044 18.01111030578613 14.15150022506714  6.999540328979492 17.75741481781006 14.23720026016235  6.954018115997314 18.16926002502441 13.84323024749756  7.228636980056763 17.91556453704834 13.92893028259277  7.503255844116211 17.66186904907227 14.0146
[...]
<PointData  Scalars="c_HbO2"> 
<DataArray  type="Float64"  Name="c_HbO2"  format="ascii">-6.7129092362848724e-37  -4.7348949690900452e-37  -5.9159280153599141e-38  2.5321434947659700e-36  1.3498719163776034e-36  -2.0921471154586158e-36  7.6741118530990867e-37  -4.1191487079372243e-36  -5.0235435627648965e-37  8.5071743492444049e-37  -3.3977022338630586e-36  -7.6217986705894621e-37  3.9353158814961293e-38  4.6457233349297744e-36  -6.1443003393427596e-37  -5.4322099505275399e-36  3.4369981956568957e-36  2.0576620103772774e-36  1.7062674486616273e-36  -1.2521211887723258e-36  -2.8227624044024606e-37  -5.7748678901545871e-37  1.2122104023267152e-36  -3.9936781396205154e-37  5.0020090079149475e-37  7.5644652205584005e-37  1.1312682295527243e-36  -2.4578457755910778e-38  -1.0651557571733940e-36  -2.1832386865034626e-36  -9.3346187891788216e-37  -1.2620498584340699e-36  6.4433419549942064e-37  1.6708258092704624e-36  -2.3318264121919230e-36  -5.2091682378690801e-36  -5.5072766059954752e-37  2.8161610821319672e-36  4.6190455959498037e-36  3.4849824043116207e-36  4.0181232816568815e-36  3.4433359030014447e-36  1.2741221124406372e-35  5.1358264764951599e-37  5.9990367580436475e-37  1.4255213183438527e-36  -1.1531352603327072e-36  -4.0577448998365519e-37  -2.2129628474982195e-36  -7.3675882347131165e-37  -1.4052715211412496e-36  -1.1316671415412319e-36  -4.4745098390038061e-37  -3.4485477606162632e-36  -5.0170034024598357e-37  3.2976408295552069e-36  3.5360659636187091e-36  5.4588581275158204e-37  1.1624365024259989e-37  6.7648998041868989e-38  6.9599489289374888e-38  -3.7568133262847507e-39  4.5456368778185571e-37  -6.6783989184615345e-37  4.5904490733443106e-37  -7.2262514625110467e-37  -1.2399886924312875e-36  -4.6745436188571094e-37  -2.7293511575911954e-37  -4.0728804065060265e-37  -8.8511101437642833e-37  9.8007723137085361e-38  1.1079748048539809e-36  -6.4712130271521136e-36  -2.5167192029257185e-36  -2.6115202245947805e-36  -4.2150451242518880e-38  -1.2857149321201595e-36  -1.9766940703998314e-37  2.2459413988220908e-37  1.6259177471691952e-36  7.7171205701013876e-37  1.0189425269826909e-36  -3.7727154469201195e-37  6.4394044118409088e-37  5.2800590717387018e-38  -7.9535970406628802e-37  1.0277595868935119e-35  3.9770178125026234e-36  1.9400370462589489e-36  5.7699649105207104e-36  7.8835375430347975e-36  1.3983732889847418e-36  -1.6209059497082435e-36  5.4306826959619983e-36  4.3916263383551024e-36  2.9493679095170391e-36  -6.8964036476600675e-37  5.6731259903552749e-36  1.1027213502846003e-36  1.4489542175429235e-36  -2.1894322134818041e-36  -3.9303076028047367e-36  -6.6406693508036347e-37  -3.1179952469492487e-35  7.5569067581980141e-36  1.9377946714414414e-36  3.3543775928101059e-36  1.6966057947513101e-35  8.5231061789979827e-36  1.9701827926024148e-34  3.5183934875299174e-34  2.8452821789580300e-34  2.5133801066453648e-34  1.8578368366979232e-34  4.8547058962845922e-34  6.3334246474714084e-34  3.5000898136817688e-34  6.4531508157826535e-34  1.8176916546475004e-34  7.7813865084897722e-35  1.6719412971345921e-34  4.3362417759571247e-35  1.8534262097704485e-34  1.3666482036175045e-34  1.5068321780119531e-34  -2.4970112999311897e-35  1.5461351900778879e-34  7.8908572321401323e-35  2.8418626455050761e-34  4.8187094913677986e-36  3.2566073511005196e-33  3.0675376516168095e-34  1.1325285573694934e-34  4.9985782587795219e-35  -8.1602979953246084e-37  -3.1823698354199959e-35  7.4511081785220105e-34  1.3360140053744278e-33  1.4841732279581065e-33  1.3773668736497836e-32  4.5504443308490695e-34  -5.0678691104912032e-35  8.9913888766461390e-35  5.7047285245113199e-35  9.1214967178358830e-35  4.8526537764866306e-35  3.5384015500077969e-35  1.1989432076704996e-34  9.1716977694033595e-35  1.1129835196033178e-34  1.0953440948652372e-34  5.3016704671184585e-34  5.6559216645478441e-34  6.0422495178539181e-34  2.4535136512214151e-33  -4.5651640521843452e-35  3.4459969765969749e-34  2.4112239057799420e-35  3.3871236876867562e-34  -1.2447349974137697e-35  6.5596998301552159e-37  -2.3226476712434971e-36  -1.6426961542836490e-36  8.9075020097800661e-37  6.9590816278107367e-36  2.5129220031759263e-36  -7.0879730006410589e-37  -4.7531619823631434e-37  -1.6826986809204907e-36  7.5743522053038675e-26  8.7776544372615933e-27  1.7995504037671888e-26  4.6466654308834824e-26  1.4421617469717152e-26  2.5858672365341613e-27  1.1845263530819655e-26  1.7148544208284369e-27  3.9261054168739631e-27  1.6450448015484061e-25  9.3129723652343314e-26  2.3326929240032882e-25  3.0789699026171117e-25  1.0042239137348301e-25  3.2502462274505206e-26  1.3167294917447065e-25  5.2466959410663240e-25  1.0531149962590497e-24  1.4417903807665783e-24  7.8327915634145731e-24  -1.8274448340072117e-34  -1.5319778564220001e-34  6.9456342058450047e-36  4.2516552406996140e-36  4.9081754103105602e-34  -7.9414748278657883e-35  5.2328679616008044e-35  -3.3027373019148487e-35  -6.5927311258843606e-35  -6.2717287618582850e-35  3.9795515861918775e-29  6.1569316043945004e-29  1.1525422808746482e-29  2.8249572753589716e-29  8.3436886708266210e-29  3.7734540065101020e-29  2.7502188248823495e-29  1.7226515172358847e-36  3.3252453119718211e-36  3.5723731520951895e-36  2.2066893739211504e-36  6.5980280425489427e-36  2.1763610843009046e-36  -4.1507021866072114e-36  2.7104984778792415e-36  7.4224388825910673e-36  3.3026775937859455e-36  4.7406755230656622e-36  4.9516514701627903e-36  4.1479678593183751e-36  9.1040062428152930e-36  3.9775748708814541e-36  2.8820071298880483e-36  1.3502979632842613e-36  1.2270531112585889e-36  1.0780362229892616e-36  -1.4056490697109309e-35  -1.2215774410170363e-35  -3.8085738694612521e-36  -6.0606919125322861e-36  2.1026683349698001e-35  1.0438278163476349e-35  3.6488975707009209e-35  2.0515329874511829e-35  1.3122630802757952e-35  1.2436836269743361e-35  -1.4193854083577371e-35  -7.9250265515340374e-36  -1.2765566355365225e-35  -2.4405802846831626e-35  -1.8851761818315940e-35  -1.1056196434170161e-35  -2.0695594840172328e-35  -2.1201404665519812e-35  -2.3447174923602745e-35  1.9602131745619649e-35  1.9999999999989253e-17  1.0892264621051960e-17  1.9999999999989253e-17  2.2026899991041838e-18  1.5245555297714102e-18  1.3003865327431299e-18  1.2957517671261723e-18  4.8043253242369591e-19  8.4889879168292624e-19  1.9999999999989253e-17  -1.8654090035276769e-36  -9.5753631889659000e-36  -7.1828363151310764e-36  -1.1040395709942783e-35  -1.3286458259745641e-35  -8.1788072856218810e-36  -6.5801436519859625e-36  6.6849700588287933e-36  7.0168333875178611e-36  -9.2372140165256443e-36  -2.2689386904857614e-35  -4.1314560788832624e-35  -2.1900750754135130e-35  -4.2445811853946324e-35  1.7652324628637466e-18  7.9393661256841495e-19  6.2971723878642280e-19  1.2771322164267557e-19  8.0106037200020624e-20  1.1774666657809116e-19  1.3975827691669026e-19  1.0168847094376972e-18  3.8240122591328526e-19  1.1529441497387432e-18  3.4807438816973844e-36  2.1337085703909647e-36  1.8250666441746894e-35  3.3839260213593753e-36  1.4595449171362918e-35  4.9493952250910005e-36  -5.3741518331502748e-36  2.7245656841428726e-33  3.1743961375326951e-33  4.5774032428040612e-34  1.1430867044967704e-33  2.0371528031996123e-33  3.5627317587798589e-32  2.9742415650767819e-33  2.2074158593846253e-33  7.7478290588367920e-34  3.6202089926434631e-33  3.4813763184636094e-19  3.0969577271985219e-19  3.1640229150355126e-19  8.0686020935578812e-19  1.4105305103452697e-18  6.6420905131300154e-19  3.1582888193499139e-19  1.0582201942634042e-19  2.2329521218270997e-19  1.0480976065652180e-18  -3.3576987091201785e-36  1.0402605937639293e-35  6.2084739006539155e-36  1.4014001617954894e-35  1.0934459836688336e-35  1.1230473027520669e-35  7.0436229136604755e-37  2.8141670985215488e-36  -2.7707647498646940e-36  4.3625386223248023e-36  -8.9316570162321860e-37  1.4748669831715969e-36  9.2937340426051318e-38  2.9364508642034974e-37  1.6722151534919067e-37  1.4120179353889575e-37  1.8970773510789074e-37  7.8070230455891260e-35  -6.5219757260884335e-35  -7.3357972055494614e-36  -6.7873404448548348e-35  -1.6970728829204819e-34  -2.1461517234192685e-35  4.4468787501250092e-35  -4.3157684859033446e-35  -9.6822652779521383e-35  -1.2188121047782662e-34  5.5183887568929689e-34  6.6281098586994871e-35  -2.4561544770512298e-36  2.9446886243983687e-34  4.8714921103562534e-34  1.5646634917553967e-35  1.0746238157772271e-35  1.1993699973203143e-34  1.4326396117530612e-33  1.8546728305365475e-27  4.1806721833822855e-28  3.4969935729926017e-28  1.0373810361039969e-27  2.3314142355927736e-27  5.9089418867564660e-28  2.4513741595529033e-28  8.5232677136045735e-29  1.0564298721084528e-28  8.3272115291196499e-28  7.1288720963459418e-28  1.0455503742408932e-28  4.9784134611825127e-28  3.6812025627613468e-28  7.4074163759807514e-29  1.5844074938920484e-27  5.1172348537147582e-29  1.5661221364999449e-26  3.0419564539787976e-27  8.4935653416354037e-28  7.9684688060646719e-28  3.1276762073608368e-29  4.1591748286495958e-29  1.2374845031327640e-28  2.0196471344354447e-29  2.5694850895118355e-30  3.2745941163899251e-30  6.3974285609732849e-30  2.4060256245381279e-29  9.6809590081516750e-30  -6.2205649835501038e-37  1.4804759258830824e-36  -5.4956097523591998e-36  -2.0354212809931739e-37  -1.9195501077138080e-37  2.1726495487062085e-37  -1.7074699009745711e-36  -1.4649147092783857e-36  -1.4228941712159272e-36  -5.9200758639105562e-37  2.1896139306463947e-27  2.3409514791411313e-27  1.8469726779826706e-27  2.8010507628062430e-27  4.2777597785263723e-28  1.0003501800526875e-27  3.7729235494771254e-28  7.3483548827925446e-28  2.6122978254350977e-26  4.6825554707889653e-27  2.1581035965464719e-23  3.3524032690163101e-23  4.9323017150968089e-23  6.0215109281361298e-24  3.7597201094587444e-23  6.6321513125404434e-23  5.5280574830360319e-22  1.9108731301368466e-22  7.3099568820785046e-24  1.7052635457000698e-22  -6.7098496630815807e-36  -8.3015141917155370e-36  9.8455668575382115e-38  -1.4042047989046221e-35  -9.1442659273783357e-36  8.7343354158609868e-37  2.7769521743859251e-36  9.3791825928662310e-36  -2.5728644409619855e-35  1.8448575834188623e-35  1.6939777070776266e-35  -1.0799224561139855e-36  -2.3631245966302227e-35  -4.6527242802826912e-35  -5.8067139781792399e-35  -2.1853043818589828e-35  -3.1618059010867527e-35  9.2687856202548462e-22  1.6003015940344077e-22  5.2969784585688522e-23  5.2374348934367439e-22  1.0903179383307477e-22  2.1403140089141652e-22  4.4423978817326077e-23  4.6813733450555608e-23  4.3352276048959596e-22  4.6526801639100785e-22  1.0095538822055204e-35  2.8664177961110370e-35  3.8541143306149525e-35  2.2344771212724307e-35  1.8998784726281727e-35  -3.6631185810542546e-38  2.7833937775474662e-35  4.5532849182027753e-35  3.1453483813143225e-35  5.6061392945228443e-36  1.4972639112491804e-32  1.0110963165415827e-32  1.2404584831677371e-33  2.2296489921232833e-33  1.1820370279113258e-32  5.4621029891942449e-33  1.5213752236270004e-32  6.9474643027111873e-34  2.5028487149820019e-31  4.4785468639809425e-33  3.0890685884956462e-25  1.2660985646204806e-26  8.9554453103618172e-27  9.3150933365261919e-26  1.6855391523126018e-26  4.6627224813319654e-26  4.9329428554224543e-27  2.3599057542798923e-27  2.0068224905147343e-26  6.1489637546956335e-26  3.0099563563127592e-36  -5.0266974824367605e-36  1.5982454411781808e-35  7.9158400988718199e-36  -1.2815341316063852e-35  -5.7038804704919582e-36  -1.4481986359220313e-35  -8.9026848254954995e-37  2.1999581147396260e-21  7.0116327520735725e-22  2.3838159718913609e-22  1.3811114318545847e-21  1.8787727935328002e-20  3.6294488487280250e-21  7.3119812608946621e-22  1.1876912068589082e-21  4.9957768497409020e-21  1.8599635471474616e-28  1.4541461932604330e-28  7.5581338282490841e-28  1.3244694172708252e-27  1.7091064265564826e-28  8.7344920864828111e-29  5.0967342598145901e-29  3.1188528727092764e-29  1.6349008022514051e-28  1.4577387168716579e-27  9.7713083198460173e-29  1.2007727605989995e-28  9.6896681724659261e-29  2.5329315042572896e-28  2.7005374669470959e-28  4.9587304877123552e-28  2.9811985860598961e-28  4.3908770599700118e-29  4.1638762373547478e-29  9.4280450487828250e-29  8.4277883181995202e-29  4.7025072848547694e-29  9.5116169710099979e-29  1.9161209679925182e-29  9.9500935848334286e-30  1.9100934003011098e-29  1.4365576862627002e-27  1.3175238449939139e-28  5.8354888781883859e-29  9.8393863034043131e-20  1.3990446932844288e-19  5.6678179864462741e-20  1.9819762593584293e-20  2.5636783646566238e-20  4.0612452108191599e-20  2.7337041976571137e-20  7.5322415960834373e-20  8.1153301407990497e-20  6.4999109221134267e-19  -2.7069197665289186e-35  -1.3749124631668390e-36  -5.6039256835168667e-35  -2.3236937342752069e-35  -1.3193364055963269e-35  -2.7742000751897954e-35  -4.2225385216237015e-35  -1.3315011120387150e-35  -8.7086028743786470e-36  5.4108887895733476e-37  2.4903320503382658e-35  3.9423947620953982e-35  6.3557887539596721e-35  6.1646933603215346e-35  -2.1237143747399420e-35  5.1557062496966856e-35  5.8694174108603899e-35  -5.0073577983570542e-36  -4.4099539429523974e-35  3.8923033971509078e-35  1.9207586782296949e-34  1.9907186777186657e-34  1.1570954287011132e-34  1.0031705031132496e-34  1.0263472657909713e-34  -2.0530860273732474e-35  5.5343626357027907e-35  2.5597078362816676e-34  9.9555814766530221e-35  5.4688927693591953e-35  4.7767095200757362e-34  2.0038211968744649e-34  1.0116759163017164e-34  3.7911559585654131e-34  4.1779924146219551e-34  2.1877179114943939e-35  4.6432717131487741e-35  -4.9370104297175884e-35  8.3411846340549789e-34  9.9831491230442096e-34  1.0414151515029026e-27  4.4017777601654715e-28  4.6211042684870846e-28  1.0717187696739909e-27  6.1197290719846881e-29  6.8299692233543489e-29  9.9625096465094609e-29  1.2873266158899057e-26  1.6430036285970365e-27  1.8809864516018257e-27  3.0585431111181277e-28  2.4732534750779501e-29  1.2768864904682458e-28  1.3485222121692950e-28  1.9112836966941744e-29  4.2443017780220413e-29  1.7141583166643211e-28  1.5312302299419751e-29  1.5780148764066424e-29  3.4960942389388611e-28  1.6393204040146125e-28  1.4005793941972114e-28  5.6000306419925131e-29  2.4316382829654546e-28  2.6668134156824580e-29  9.4888042013647140e-29  5.6962241528978951e-29  2.0425620798879924e-28  1.8826854206392751e-27  8.4370684574857369e-34  5.1635323700488008e-34  3.3025061292179607e-33  1.2878433806187689e-33  1.1039210308611948e-32  9.4536070813314250e-33  2.2065908689689033e-33  1.2207882291428309e-32  4.9217128273430014e-32  3.9533756207081200e-33  -7.9117318946950594e-37  -2.1080502791316066e-36  -9.7940921783530308e-37  -1.7044875034989716e-36  1.5850496993933419e-36  2.3632990868689951e-36  2.7715424479178384e-36  1.4675352316305482e-36  -1.7775851392510430e-36  5.7485375929487701e-36  -2.9738888052751632e-35  -1.7036347916192400e-35  -4.0206836912751171e-36  -3.1957740544810002e-35  -3.0575678355296232e-35  -6.1591959076951522e-36  -5.4399868583366225e-37  -1.5458676623848453e-35  -1.1277818188505910e-35  2.0099609366254440e-32  6.3452115852383072e-34  1.1685136862711782e-33  2.1474457341861054e-33  1.1827520926062737e-32  8.2908237117704592e-35  1.6697697428835356e-33  1.6465661792290468e-32  2.9372189049887364e-33  2.5748890711973781e-33  5.9736890067852814e-33  1.4580153273465232e-33  2.3332750561125458e-34  4.5027184708761550e-33  6.2326238555079882e-32  4.5092921799490301e-33  1.0081753443259509e-33  6.8467455166947801e-34  -9.0009975875656810e-37  -6.8245931882865108e-36  2.2345255545977184e-35  -8.8122871537248732e-36  2.8587188842654015e-37  -1.1846812102434201e-35  -1.6150031694064665e-36  3.6074643263969898e-36  1.1339728901156134e-35  2.8600388028856083e-33  2.4923155642798021e-33  1.8846665026388433e-33  6.0344116109291964e-33  5.5205266330547548e-32  2.8845493853268209e-32  1.3524847265736549e-32  1.3164073502148159e-32  6.4390658125951118e-32  2.9595738679802576e-26  2.3021458245026942e-25  1.4559032291536084e-30  2.6825087955542873e-31  4.2251419956024839e-31  1.6814658712775305e-30  1.7750361421293619e-31  5.5912090487537679e-32  9.0810831160231925e-32  2.1919955206169912e-32  3.4080289984365014e-32  5.4932964531924543e-26  1.2443748713315570e-26  1.0613954430342875e-25  6.9308574916101801e-26  2.7223341906599525e-26  3.9015024205637218e-26  3.8959041759050601e-25  3.3068742698896856e-26  -1.4357291811703663e-35  -1.4811123139727453e-35  -1.9077113947391431e-35  -1.1228005148945858e-36  -1.7603939652235567e-35  -8.2070811883320606e-36  -2.3922837800021774e-36  3.9190025340715037e-28  2.7566005523602552e-29  9.0583721036724857e-29  8.2117912702593517e-29  2.5169546851977641e-29  3.1569230168125695e-28  2.5872779203722932e-35  -7.0171680869133358e-36  7.3587309887344139e-36  1.7147201274226919e-35  1.0669705539764211e-35  -2.9857786617841278e-35  8.8930636413904060e-36  -5.0634253701280649e-37  -1.8386898420309961e-36  7.6559779094827126e-28  1.0448846670007801e-27  2.7975699232508695e-27  2.0284921301696847e-27  1.8545224402027161e-28  4.2092688566229277e-28  3.8738337576218790e-28  3.2726232578751134e-27  1.0101144823530413e-26  2.6859018699316969e-26  -3.5531279740075307e-34  1.9243197205860379e-34  2.7604017022921850e-34  -6.5009052283218698e-34  2.7040458689272500e-34  2.3516355074606303e-34  3.6516200648642231e-34  1.3470423303533428e-20  1.0650297604593311e-21  1.2953095396567428e-21  9.5275624337985336e-22  7.0630186328238193e-21  2.2848262562146046e-20  1.6092661889624623e-21  3.1469923799127107e-22  1.9392313722061451e-21  8.4737288300773458e-24  1.4343360197642719e-23  1.8143086515192900e-24  1.4214937471451696e-24  8.6889611450491978e-25  2.2084895467589155e-24  7.2132250261799220e-25  5.4424116181626344e-24  9.1634690954883006e-24  5.1703120065438325e-23  4.7790875876459946e-24  5.7117488652942709e-24  1.2860424613368174e-23  7.9446627987258850e-24  1.5701333678535140e-24  5.2362748571002988e-24  2.0335094554619978e-23  -5.2783842262242440e-36  -2.0460109243161809e-35  -1.2366421265254089e-35  -9.7064435218269181e-36  -2.1078251954552349e-35  1.5199442884291528e-36  -1.2743881881939262e-36  -1.7731582574830329e-35  -1.3904046487156482e-35  9.5481517111327665e-24  8.8164985995610365e-25  1.7027175063967341e-24  8.3883531619001627e-24  1.0030932651991764e-24  5.3139486703688218e-24  4.9056072689634329e-24  -7.3051430884383996e-36  -2.2951255414830182e-35  -1.2752290350141051e-35  -3.2076627040389863e-36  -1.9686939051076994e-35  -1.2662043622980720e-35  -4.7765730280100550e-36  -1.2481208654606101e-35  1.8261506282700089e-35  -1.0179505312741982e-35  2.5082458202565730e-36  9.8467330038939514e-37  1.6043639402606679e-38  3.2795599010504455e-37  2.0425456401641055e-36  1.8119384300340587e-36  1.9672357833569080e-36  3.8753016494280863e-36  2.4114209198111584e-36  1.0010930435741862e-36  3.4331403983356358e-35  -2.5448846164500671e-36  8.1082390581408292e-35  2.6017863047886831e-34  8.4406726677097501e-35  7.2746862686183807e-35  -1.0969104406791911e-35  4.8933812256912073e-36  1.7207210841301359e-35  3.3054629682543871e-36  9.0259917745186157e-36  -3.2983673919451223e-36  -1.2458739597547509e-35  -1.5164878176922721e-35  -1.0383147056261254e-35  -1.3888212928085126e-35  -9.1828705187558974e-36  2.8308355776487629e-31  2.9657974726262622e-32  2.7799071563658882e-32  2.8625431001979924e-32  2.8272099841260792e-32  8.6902307785571432e-33  6.8558125039280648e-33  1.7172769782356540e-32  1.3163458422563087e-32  5.6059524861404589e-27  5.5302866221669586e-28  4.7666366012599630e-27  2.9525063429304006e-28  1.4601562655011982e-27  4.7938885879523223e-28  3.8128537346738705e-27  1.3216904302334025e-26  -4.4524739771201764e-37  -4.2775810780502685e-36  4.2844517266854718e-36  8.1148308847074465e-36  4.7665863561426925e-35  1.6007621027036588e-36  -4.8926239855678598e-37  -4.0651763289306677e-36  -3.9848297954673507e-36  -1.7020909184454342e-36  -6.2302353645727712e-36  1.8814319961820696e-36  3.5215065895869067e-36  1.8710002374405093e-36  9.7155191898040576e-37  7.8324380651698493e-31  4.9779640770925956e