<?xml version="1.0"?>
<VTKFile type="UnstructuredGrid"  version="0.1"  >
<UnstructuredGrid>
<Piece  NumberOfPoints="6751" NumberOfCells="30642">
<Points>
<DataArray  type="Float64"  NumberOfComponents="3"  format="ascii">20.65979957580566 18.87601089477539 26.60878944396973  20.35725668856752 19.20881346930847 27.05750282019638  20.7375436910593 19.15283149528656 27.20006397177418  20.52797091660256 19.27315003942092 26.73968620413888  20.48908534777062 18.81167432466294 26.92660606002723  20.90825791909435 19.21716806539901 26.88224735571668  20.31837111973557 18.74733775455049 27.24442267608473  20.39614225739946 19.67028918406645 26.87058296430804  19.10965919494629 18.25015068054199 26.71386909484863  19.32982735892642 18.67787252303297 27.28631578720466  19.28499837937539 18.69416299254991 26.88933763185001  19.32960414886475 18.30970001220703 26.76971912384033  19.15448817449732 18.23386021102506 27.11084725020328  19.5495491027832 18.36924934387207 26.82556915283203  19.50494333329385 18.75371232421495 26.94518766084171  19.37443312841577 18.2934095426901 27.16669727919498  19.19931715404834 18.21756974150812 27.50782540555793  19.4603375638045 19.13817530455783 27.06480616885138  21.09638023376465 18.34741020202637 26.90106964111328  20.8351014904586 18.53806657026558 27.76406673347492  21.25427406178233 18.94356031100165 27.71970802916437  20.70737567675011 18.54737397828843 27.072746158599  21.22410604747314 18.33810279400351 27.5923902159892  21.12654824807384 18.9528677190245 27.02838745428846  21.15671626238303 19.55832523602263 27.15570526746363  21.35183186118163 18.32879538598066 28.28371079086511  18.53772926330566 18.62068939208984 26.25547981262207  18.01857303011628 19.08394514551474 26.58905334421918  18.56401620168602 19.03732366951417 26.46625101761833  18.17447598127827 19.1449773506037 26.16989599201374  17.99228609173593 18.66731086809041 26.37828213922292  17.81122269925087 19.66926530911755 26.08431217140541  18.20076291965862 19.56161162802803 26.38066719701001  17.62903280970853 19.19159882660427 26.29269831861459  17.44684292016619 18.71393234409098 26.50108446582377  18.59030314006637 19.4539579469385 26.6770222226146  17.78372955322266 19.36870956420898 28.96714019775391  18.15956619126639 18.98269400474775 27.98028574850046  18.05479208752004 18.87143789182212 28.7877017250094  18.30610597591976 19.35762052309815 28.55111682789683  17.63718976856929 18.99378304585859 28.39630911835754  17.49064998391593 18.61885652750819 27.82547803896117  17.90825230286667 18.49651137347172 28.21687064561304  18.82848239861686 19.34653148198731 28.13509345803976  18.57716851021714 18.86034885071128 28.37167835515233  18.32585462181742 18.37416621943526 28.6082632522649  18.07335914796586 19.96200907205899 26.75138698154672  18.1326778309234 20.29748527589687 26.21289131976334  17.68381892755811 20.06966275314851 26.45503195594212  18.64962182302391 19.78943415077638 26.13852656083122  17.55641515586536 20.47006019717948 26.82575174047883  18.75995063781738 17.07168006896973 27.02359962463379  18.83385467529297 16.54321956634521 27.23835563659668  18.59804949951472 16.74193269939959 27.5715949391075  18.95565509796143 16.85132503509521 27.23684501647949  18.63815021514893 16.76357460021973 27.02511024475098  18.51634979248047 16.45546913146973 27.02662086486816  18.47624907684626 16.43382723064959 27.57310555922469  19.15135955810547 16.6309700012207 27.4500904083252  18.79375395965876 16.52157766552508 27.7848403309532  18.43614836121204 16.41218532982946 28.11959025358121  20.71947158035989 19.5465045697554 26.54219169730295  20.27828979492188 18.30069923400879 26.93058013916016  19.75884413689196 18.48245374802931 27.37612404082133  20.29833045732872 18.52401849427964 27.08750140762244  20.1360334424785 18.28164302324453 27.51037515680464  19.73880347448511 18.25913448775846 27.21920277235904  19.99377709003513 18.26258681248027 28.09017017444912  19.59654712204174 18.2400782769942 27.79899779000353  20.15607410488535 18.50496228351538 27.66729642526693  18.14992904663086 16.89722061157227 26.58526992797852  18.40333074124145 16.9853334119713 27.27945071619217  18.22012036831664 17.20620915202257 27.05877524774734  18.45493984222412 16.984450340271 26.80443477630615  18.33313941955566 16.676344871521 26.80594539642334  18.5251311639099 17.2934388807213 27.27794009607498  18.29031169000243 17.51519769247287 27.53228056751617  19.93396011125939 18.55829354921128 27.03499591445838  19.91391944885254 18.33497428894043 26.87807464599609  19.71771430969238 18.59432506561279 26.72379970550537  19.88587951660156 18.81940078735352 26.62203025817871  20.10212531816857 18.783369270952 26.93322646713172  20.08208465576172 18.56005001068115 26.77630519866943  19.72705732691982 18.70038105851905 27.57748817165025  19.88935434177004 18.94275652955416 27.15461442246806  19.67692947387695 17.58255958557129 27.09592056274414  18.97844763689978 17.21871289140952 27.57557199981991  18.97963389593286 17.64462490523892 27.26571251509586  19.43693705492956 17.4741526497103 27.61173246887509  19.21844005584717 17.32711982727051 27.05976009368896  19.43812331396265 17.90006466353971 27.30187298415103  19.19813089501526 17.79165772767871 27.81768489028198  19.19694463598217 17.3657457138493 28.12754437500604  20.07633403163599 19.55359693466214 27.93707678458596  21.09368830556581 19.75141348329502 27.92063953084939  20.71408294640881 18.9411961603214 28.11039378772553  20.55349719019229 19.74904933261477 28.31132528941055  20.61652514700951 19.55596108534239 27.54639102602479  21.03066034874858 19.94450173056741 28.68557379423515  19.21702003479004 18.97158050537109 26.35330963134766  19.75770422043985 19.24489274413682 26.65434274354434  19.33867879929727 19.05487790496446 26.70905790009952  19.5514497756958 18.8954906463623 26.48766994476318  19.63604545593262 19.16159534454346 26.29859447479248  20.0550708770752 19.35161018371582 26.2438793182373  19.97047519683838 19.08550548553467 26.43295478820801  19.67310854020303 18.97878804595567 26.84341821351505  16.87885816837353 20.56818181461582 25.91612330314993  16.83126078562889 20.05275578706417 26.09313708171721  17.17003927937481 20.003694978346 26.54795130038166  16.58808643166674 20.07505945678263 26.63457570480045  16.78366340288425 19.53732975951252 26.2701508602845  18.52318954467773 19.43972969055176 25.85923957824707  18.55674634237205 19.44684381874513 26.26813090043083  18.87010478973389 19.20565509796143 26.10627460479736  18.5304594039917 19.0302095413208 26.05735969543457  18.87737464904785 18.79613494873047 26.30439472198486  18.9036615874282 19.2127692261548 26.51516592698113  19.02532035193543 19.29606662574816 26.87091419573299  18.90835895885523 18.82699670820136 27.09096986939351  18.786700194348 18.74369930860799 26.73522160064164  18.35638035390596 18.51581811184488 27.11713356993563  18.47334174698616 18.98488802939169 26.89707789627511  17.71114537317481 19.46181002577461 28.15816820971745  17.63856119312696 19.55491048734024 27.34919622168098  18.23352179587191 19.45072098466377 27.74214483986037  17.56460558852145 19.08688350742421 27.58733713032107  20.36239756518837 20.06455044035793 27.83466682351759  20.83956072374466 20.26000283831056 28.20891532834219  20.64846109874075 20.57550394605371 27.73225686244922  17.46887969970703 19.69684028625488 25.12726974487305  17.12627155129564 19.6170850228837 25.69871030257877  17.64005119947895 19.68305279768622 25.60579095813923  17.59084987640381 19.31846046447754 25.40058994293213  17.71282005310059 18.9400806427002 25.67391014099121  17.24824172799242 19.23870520110636 25.97203050063785  17.76202137617573 19.30467297590887 25.87911115619831  17.29744305106756 19.60329753431503 26.17723151584495  17.57983148663339 18.82700649339559 26.08749730340749  17.86246013641357 18.43794536590576 25.96069526672363  18.12527465820312 18.78038501739502 25.96469497680664  18.27491474151611 18.27824974060059 26.25148010253906  18.01210021972656 17.93581008911133 26.24748039245605  17.72947156994638 18.32487121660116 26.37428242913991  17.05500030517578 20.56076049804688 27.72315979003906  17.70669076044287 19.97102538069405 27.86919344775455  17.34678074915137 20.05783549269356 27.53617800586002  17.07353973388672 20.1655855178833 27.99934959411621  17.41491031646729 20.47395038604736 28.05617523193359  17.77482032775879 20.38714027404785 28.38919067382812  17.43344974517822 20.07877540588379 28.33236503601074  17.09207916259766 19.77041053771973 28.27553939819336  17.36532017786231 19.66266051252999 27.81236780993717  20.94852066040039 17.7401294708252 27.09223937988281  20.63344589006798 18.24373361268784 27.16833102798377  20.47114887521776 18.00135814165273 27.59120477716597  21.15017626079101 18.03446242840293 27.68797508537396  20.67280447560838 18.29569109923046 28.18694048265711  19.25797129663893 18.04845171561912 28.44520722518856  19.25915755567201 18.47436372944853 28.1353477404645  19.65638752366541 18.49687226493461 28.4265201249101  19.59536086300865 17.81416626316479 28.10885727472758  19.31899795729568 18.73115771738895 28.76287007537108  19.60290442246616 19.83645941051189 26.89574480943682  19.37666364731973 19.46254792602159 26.50902280488468  17.3450404338122 20.11872356186668 26.00021773727767  18.63312911987305 19.27796936035156 29.26166915893555  19.29616432288612 19.27894422276918 28.93870031936278  19.05090654354671 19.58663110506836 28.62481201069713  18.97606353858436 19.00456353887025 29.01226961715331  18.9532299041748 19.55235004425049 29.18809986114502  18.73080575924495 19.31225042116943 28.69838130848765  19.27333068847656 19.82673072814941 29.11453056335449  19.07374017795627 19.03884459968813 28.44898176670542  18.73301977442613 18.38298439619344 26.91550133239213  18.44705480860581 18.56825375196736 26.68630669127885  18.6172342300415 18.18778991699219 26.48845481872559  18.82369422912598 18.43542003631592 26.48467445373535  18.52655977534165 18.13535427686971 26.919281
[...]
<PointData  Scalars="p_CO2"> 
<DataArray  type="Float64"  Name="p_CO2"  format="ascii">4.4991015159315545e+01  4.4998296730266745e+01  4.5001762471481136e+01  4.4996685960461846e+01  4.4997294142524318e+01  4.5001100975848907e+01  4.4998590330074258e+01  4.5000257053367257e+01  4.4999342497869641e+01  4.5005627595446640e+01  4.4993588692218054e+01  4.5011071975859245e+01  4.4996342540018475e+01  4.4993340816303494e+01  4.4997574143147816e+01  4.4994006887646911e+01  4.5003469120130013e+01  4.4999319008167539e+01  4.4991048970961970e+01  4.4996346332976934e+01  4.5000809690807685e+01  4.5001276909019658e+01  4.5000047001633348e+01  4.5002141167114353e+01  4.4997531877269587e+01  4.5002462690239305e+01  4.4996784466693491e+01  4.5000049607061520e+01  4.5003966465685309e+01  4.5000626163404476e+01  4.4998112484617764e+01  4.5003608199318919e+01  4.5000011005216642e+01  4.4998586173657678e+01  4.4994955776645988e+01  4.5000169943386389e+01  4.4997593039092180e+01  4.4999916223571773e+01  4.4995672249223212e+01  4.4995474512815569e+01  4.5005062418614010e+01  4.4999482747261929e+01  4.4999040480776792e+01  4.5003961628573016e+01  4.5001691516090801e+01  4.4995312114533043e+01  4.4997524565876617e+01  4.4998835333355601e+01  4.5001214489329406e+01  4.4998992386099239e+01  4.5003303025608574e+01  4.4989608643231747e+01  4.4993422110605913e+01  4.4978485780365752e+01  4.4984587977888729e+01  4.4989880849941080e+01  4.5013845065308281e+01  4.4999051790975720e+01  4.4980370128942106e+01  4.4967404347095105e+01  4.4986200815928946e+01  4.4995271011136801e+01  4.4998326002277864e+01  4.5002480269780044e+01  4.5002053754557750e+01  4.5006987055201641e+01  4.4999986607582137e+01  4.4999960536530132e+01  4.4995084941344274e+01  4.5001453697982200e+01  4.4990485929929008e+01  4.4983023217045250e+01  4.4997972032925986e+01  4.4983099906560390e+01  4.4993925149606817e+01  4.4987922769386309e+01  4.4998375042247254e+01  4.5009340645846379e+01  4.4998601636758636e+01  4.4995164427690497e+01  4.4999166896894636e+01  4.5006459999943793e+01  4.5003945156579320e+01  4.5001013322193174e+01  4.5002961613629090e+01  4.4992109630614884e+01  4.5023640785710640e+01  4.5012737131150750e+01  4.5000475205055444e+01  4.5019161865836494e+01  4.4982928849296805e+01  4.4998565155497928e+01  4.5003624202034025e+01  4.5004403016643565e+01  4.4998374766884659e+01  4.5004262977059440e+01  4.5001402689087243e+01  4.5002106057793263e+01  4.4998932511384908e+01  4.5004222316311115e+01  4.4995199672583702e+01  4.5007521899152295e+01  4.4996332920823960e+01  4.5019403529869287e+01  4.4998635003523809e+01  4.4999582702409164e+01  4.4996467382176775e+01  4.5002113527921992e+01  4.5003509426383381e+01  4.5001591716435151e+01  4.4998722217306955e+01  4.5001904984231963e+01  4.5004376428989048e+01  4.5003228562867378e+01  4.4995576482891494e+01  4.5005440112612582e+01  4.5002207419845583e+01  4.4998086348229592e+01  4.4999713081973589e+01  4.5004242700178729e+01  4.4996008300546706e+01  4.4996844103648101e+01  4.5000119266112776e+01  4.5000152972731762e+01  4.5003608875631052e+01  4.5003829640293212e+01  4.5001392285453591e+01  4.5000800677985183e+01  4.4999209128227605e+01  4.5001767767737540e+01  4.5003226046316549e+01  4.5003641052602859e+01  4.5002187603532363e+01  4.5000327366795879e+01  4.4999653251897215e+01  4.5003226362947650e+01  4.5000097343379977e+01  4.5000649051027530e+01  4.4997279664292051e+01  4.5013793544836361e+01  4.4982429176341988e+01  4.4995843585930615e+01  4.5003367565097975e+01  4.5008763396037530e+01  4.4987122289495922e+01  4.4998284285657107e+01  4.5002575142130461e+01  4.5001120771163215e+01  4.4997383375218142e+01  4.4998952028507425e+01  4.5005675010965362e+01  4.4999155692012032e+01  4.5001327735270053e+01  4.4999049142427090e+01  4.5004963651923440e+01  4.5003974574491899e+01  4.4999987041981036e+01  4.4997238247342331e+01  4.5009221832444290e+01  4.5000584727655017e+01  4.5001034057852564e+01  4.5004525443630065e+01  4.5002429855584644e+01  4.5000045041399247e+01  4.5004642011257594e+01  4.4999526907334804e+01  4.4996376679008868e+01  4.4994299000952900e+01  4.4986767930339170e+01  4.4994379951343255e+01  4.5000249527638587e+01  4.5003684073113916e+01  4.4997816731871822e+01  4.5004580082718036e+01  4.4999365089567199e+01  4.4999771533358178e+01  4.5008866069759307e+01  4.4979340983573145e+01  4.5003506112532882e+01  4.5005238024154700e+01  4.5015806579059543e+01  4.5002034456167863e+01  4.4998389939346403e+01  4.4998854888739196e+01  4.5001328818566208e+01  4.4995515734158644e+01  4.4998431065446461e+01  4.5000159645966349e+01  4.5001292239241643e+01  4.4997668369402831e+01  4.5006843639109107e+01  4.5047562978554993e+01  4.4997451846928051e+01  4.4983197116001847e+01  4.4997334795983058e+01  4.5004310846694722e+01  4.5001617475349384e+01  4.5001246497961958e+01  4.5010575103702486e+01  4.5004484885643862e+01  4.4998793695329979e+01  4.4989723196707438e+01  4.5001710998028152e+01  4.4999325527280398e+01  4.5003324401749182e+01  4.4997859957189824e+01  4.5002172310284216e+01  4.5003203678521416e+01  4.4994563214715129e+01  4.5004854062039520e+01  4.4994678458010405e+01  4.5000172790626628e+01  4.4997575197834443e+01  4.4995123434360202e+01  4.4999434365957349e+01  4.5002811075833911e+01  4.4998006561360455e+01  4.5009124933351295e+01  4.4994382206678793e+01  4.5000415705973964e+01  4.5015241143423232e+01  4.4995597854905995e+01  4.5000542058960178e+01  4.5003571728978443e+01  4.4998430126855020e+01  4.5000953826150770e+01  4.5004051142349667e+01  4.5004602050101639e+01  4.4999393491529190e+01  4.4999999859477718e+01  4.5016921474506262e+01  4.5037676028203563e+01  4.5002353509841782e+01  4.4998890704760015e+01  4.5001281718633898e+01  4.5002826197542582e+01  4.4997370443436225e+01  4.5003248528230181e+01  4.5002738102264878e+01  4.4999382387805497e+01  4.4999944582953944e+01  4.4993180982240467e+01  4.4983245913367206e+01  4.5005855409696125e+01  4.5001496136337842e+01  4.4996737025907436e+01  4.5002763858745475e+01  4.4995663076422822e+01  4.4991637160143497e+01  4.5000409767554416e+01  4.5007753493363111e+01  4.5001438442681483e+01  4.4998439889381920e+01  4.4993630689392056e+01  4.5002236759008206e+01  4.5001096508056044e+01  4.4996182962450440e+01  4.4990606119675270e+01  4.4997782941650975e+01  4.4996859279396922e+01  4.4998012534784948e+01  4.5001813114122754e+01  4.5005171548390138e+01  4.5007298908525357e+01  4.5002594310560951e+01  4.5000353884267170e+01  4.4998292194118569e+01  4.5000848376852687e+01  4.5001420945430795e+01  4.5001750142005541e+01  4.5000101372560493e+01  4.4997635318918242e+01  4.4996939756311875e+01  4.5000771027988364e+01  4.4989373861085582e+01  4.5002918166935046e+01  4.5005269506315585e+01  4.4994764224280274e+01  4.4994786509332052e+01  4.5005880684381999e+01  4.5006747635784500e+01  4.4996126816207862e+01  4.4990111174552382e+01  4.5001557526379720e+01  4.5000807940929036e+01  4.4997554837591601e+01  4.5001589914856382e+01  4.4999252012742630e+01  4.5004679747907296e+01  4.5004648019211714e+01  4.5003969079091796e+01  4.4993820078086458e+01  4.4998885046693765e+01  4.4999358304731231e+01  4.5015778980342205e+01  4.4989401640867044e+01  4.5000856080256433e+01  4.5000758805957403e+01  4.4991949899822110e+01  4.5001255672222115e+01  4.5000856671751841e+01  4.5006624304591767e+01  4.5003369635292295e+01  4.4996937050205183e+01  4.5011684822793768e+01  4.5005527539119278e+01  4.5000470717139542e+01  4.4997403609266328e+01  4.5004800125053038e+01  4.5008517767194334e+01  4.5000200823380595e+01  4.5006332031996166e+01  4.5007311287789960e+01  4.4999084472840579e+01  4.5001719127999856e+01  4.4993857574536989e+01  4.4997948525702718e+01  4.4992998820166548e+01  4.4999737044067352e+01  4.5001773658113557e+01  4.5003175782914823e+01  4.4996107602208092e+01  4.5002496461084270e+01  4.4997962385135033e+01  4.5009789613291055e+01  4.4998471061310582e+01  4.4999028974983254e+01  4.5000652349207996e+01  4.5003893998188644e+01  4.5006812452439483e+01  4.4992564197300410e+01  4.4990900345111534e+01  4.5016393689508959e+01  4.4998557754202601e+01  4.5000750571595681e+01  4.4997992098141097e+01  4.4977245557543270e+01  4.5007261713673778e+01  4.4994739144445504e+01  4.5005246439931476e+01  4.5027396600336921e+01  4.5004790364864235e+01  4.5002776408822733e+01  4.4966982140874293e+01  4.4969193380279172e+01  4.4978988107860715e+01  4.4995447684303784e+01  4.5006611522780048e+01  4.4996916328850347e+01  4.5008023893563312e+01  4.5001733837582712e+01  4.5028716008108006e+01  4.4963287035529085e+01  4.5035618662607042e+01  4.5009512095190004e+01  4.4892522371418508e+01  4.4978622899193994e+01  4.4968315249658680e+01  4.5031816323107954e+01  4.5064436536680695e+01  4.5005078951175101e+01  4.4946715674897462e+01  4.5019458991169458e+01  4.4995874940832444e+01  4.4988743047938769e+01  4.5005029430101402e+01  4.5043323908045679e+01  4.5001379961980874e+01  4.4969867312102998e+01  4.5010337431941124e+01  4.5002728325118603e+01  4.5023971459671984e+01  4.4984370270892512e+01  4.5043606705780306e+01  4.4977147443811830e+01  4.5011975019718086e+01  4.4976972216973564e+01  4.5002309630967204e+01  4.4985248582043795e+01  4.5001910365219040e+01  4.5001457383088685e+01  4.4992276383189804e+01  4.5000305701505269e+01  4.4996459551520431e+01  4.4994542306374889e+01  4.4997366630697982e+01  4.5000953926326645e+01  4.5006404817483499e+01  4.5009928674008329e+01  4.5007568735104520e+01  4.4991081260885487e+01  4.4968298840446728e+01  4.5026527050676030e+01  4.4949472534912850e+01  4.5056438308567877e+01  4.4983337452277347e+01  4.5055097014893775e+01  4.4995119695606320e+01  4.5001019313807042e+01  4.5007054179012982e+01  4.5011962141324958e+01  4.5018645141455607e+01  4.5006199955722039e+01  4.5020520703390687e+01  4.4999919425388981e+01  4.5006981978520926e+01  4.4997063943181722e+01  4.4996113586056396e+01  4.5008175426843977e+01  4.4990856447222036e+01  4.5019016791734273e+01  4.4994137608173617e+01  4.4992706884379267e+01  4.4995817254533655e+01  4.4995940233370121e+01  4.4995365455283242e+01  4.4998301752930111e+01  4.4983113232908444e+01  4.4987956190786420e+01  4.4981051923131481e+01  4.5000145132243986e+01  4.4993302648622532e+01  4.4977405260829457e+01  4.5032616416881893e+01  4.5003632551733297e+01  4.4949466838923300e+01  4.4994771312656447e+01  4.4991172029368173e+01  4.4996066241356132e+01  4.4999827677376665e+01  4.5009688164796785e+01  4.5012251601381159e+01  4.4995580189328727e+01  4.4996346252223894e+01  4.5007876615485223e+01  4.5004957646904771e+01  4.4993461799785990e+01  4.5003713562646041e+01  4.5011682102424921e+01  4.5000192675301477e+01  4.5005407914919537e+01  4.4993547093777828e+01  4.5001580519951261e+01  4.4994199947886329e+01  4.4999555641709392e+01  4.5000148017993617e+01  4.5011808507906373e+01  4.5010642844100744e+01  4.4999948209086782e+01  4.5010759471630102e+01  4.4995236409704439e+01  4.4993134751747498e+01  4.4994535518147856e+01  4.5006248470917832e+01  4.4994187962638982e+01  4.4998138714282298e+01  4.5000409155097827e+01  4.5002506999387307e+01  4.5011338772339251e+01  4.4999819187881585e+01  4.4995412078495363e+01  4.4994591832224195e+01  4.4984482277014870e+01  4.5001178171154244e+01  4.4995721744085721e+01  4.5001642786640986e+01  4.5001613687243761e+01  4.4980572560620679e+01  4.4986051021366045e+01  4.4893469466027625e+01  4.4985815786471939e+01  4.4998395630013555e+01  4.5018741358361538e+01  4.5001861200908316e+01  4.4996129414742228e+01  4.5010616612994106e+01  4.4961053212090860e+01  4.5001090138261418e+01  4.5001651940532099e+01  4.4993336759925974e+01  4.4991830680851756e+01  4.5005115324248393e+01  4.4999021861929094e+01  4.5011134250875600e+01  4.5012676376309223e+01  4.5000950558078316e+01  4.5024498649848404e+01  4.5008990184978558e+01  4.4977853411529829e+01  4.4997154682410837e+01  4.5019391823890949e+01  4.4983104737524634e+01  4.4990291321778372e+01  4.4965299564260555e+01  4.4997776607139485e+01  4.5015546226415978e+01  4.5006904891064245e+01  4.5002194478003183e+01  4.4998668566320625e+01  4.4996628276798056e+01  4.5021251609186137e+01  4.4995534759480869e+01  4.4991226374298719e+01  4.5000743395155673e+01  4.5000648689912438e+01  4.5002132951147281e+01  4.5005259091891730e+01  4.4993253383328387e+01  4.4994870390284923e+01  4.5010258769217621e+01  4.4963273126246996e+01  4.4975970661455868e+01  4.4992846352480278e+01  4.5000019709202363e+01  4.4986681168083344e+01  4.5009967961087007e+01  4.5002016126129753e+01  4.4985144531933329e+01  4.4998118410072657e+01  4.5004588282035051e+01  4.5004349260712395e+01  4.4993633233920058e+01  4.4983555839133416e+01  4.4994116081208979e+01  4.4995179482534610e+01  4.4988161454160760e+01  4.5014351075918263e+01  4.4986505804932840e+01  4.5003192382411783e+01  4.4997614366095384e+01  4.4998896115704333e+01  4.4971471609509457e+01  4.4995858184962579e+01  4.5049340209502077e+01  4.5004930598657538e+01  4.5003496856772280e+01  4.4994904448711942e+01  4.5014510428969324e+01  4.5024417854011794e+01  4.5015690743073527e+01  4.4993193648721409e+01  4.5027097656584843e+01  4.4993865200822775e+01  4.4989350919536371e+01  4.4994878510941390e+01  4.4994093662319365e+01  4.5025539359239346e+01  4.4939826501510623e+01  4.5012085960426774e+01  4.4995880027366326e+01  4.4994826963837951e+01  4.4986971431065420e+01  4.5019097194629140e+01  4.5000795647889703e+01  4.5076106383445868e+01  4.4915900910407274e+01  4.4913964251460754e+01  4.4999437529783037e+01  4.4987614739019463e+01  4.5001827198555915e+01  4.4985779883164568e+01  4.4998980543399888e+01  4.5009526101660498e+01  4.5001610014996892e+01  4.4999965519032713e+01  4.5003881857872798e+01  4.4977523500518224e+01  4.4999077108899520e+01  4.5000023564077182e+01  4.5020553234317617e+01  4.5008938320626108e+01  4.4987818761493685e+01  4.4998677060825713e+01  4.5008465506681880e+01  4.4994713101132227e+01  4.5029754711893283e+01  4.5094475454200513e+01  4.5026090721440085e+01  4.4981840876866116e+01  4.4966434505552336e+01  4.4925920196976961e+01  4.4983927454089837e+01  4.5000245076397334e+01  4.5021768740174096e+01  4.5040854319927426e+01  4.5038140193771781e+01  4.4901859843584297e+01  4.5013690412288256e+01  4.4999207636978682e+01  4.4998208302490411e+01  4.5002012852341487e+01  4.4993593262706192e+01  4.5009101558442268e+01  4.5004619809823716e+01  4.4979686051777335e+01  4.4991169376417133e+01  4.5007550372681784e+01  4.5006565363001314e+01  4.4999615677849839e+01  4.4996396163174637e+01  4.5003543008298493e+01  4.5014726176394781e+01  4.4994559153131185e+01  4.5015621175066329e+01  4.4976115577131267e+01  4.5003567366327772e+01  4.4993147160192194e+01  4.5018826642942429e+01  4.5028490266774050e+01  4.4999655065449872e+01  4.4999132955594838e+01  4.4873844481512819e+01  4.4989209997148478e+01  4.4998272868419036e+01  4.5007120172184095e+01  4.5031833532087454e+01  4.5057046484410520e+01  4.4979413120659963e+01  4.5030297624889727e+01  4.5019951858699045e+01  4.5154918574767606e+01  4.5008339003698758e+01  4.4996773397092937e+01  4.5007454705781022e+01  4.5015765381872647e+01  4.5013577853582476e+01  4.5000415634699586e+01  4.4998696731798198e+01  4.5000823674355701e+01  4.4999031140616715e+01  4.5003559490718203e+01  4.4998728154295542e+01  4.5000105679955780e+01  4.5001154287013044e+01  4.4994467188872697e+01  4.4997411746965604e+01  4.4997323628067555e+01  4.5003756843184178e+01  4.5043394803474996e+01  4.5015928880733618e+01  4.5008731857461846e+01  4.4992443547231268e+01  4.4959219047306824e+01  4.5010251658816912e+01  4.5006316285810250e+01  4.5040885790926119e+01  4.4894477966072927e+01  4.5021227613210627e+01  4.4997303020417462e+01  4.4984595872650068e+01  4.4999114553731559e+01  4.4984103728253537e+01  4.4985287888737666e+01  4.4984084255840862e+01  4.4996294469365154e+01  4.5002058547480289e+01  4.5003920114514173e+01  4.4997052837083800e+01  4.4997098963314180e+01  4.4998440359392625e+01  4.4999528248588561e+01  4.4999905308504793e+01  4.4998957188070371e+01  4.4998615772518015e+01  4.4994697914925084e+01  4.5002594396649755e+01  4.5012001393586289e+01  4.5004470948218454e+01  4.4992098546965416e+01  4.5002953316674748e+01  4.4995811313304372e+01  4.5001081362819704e+01  4.5004717282731725e+01  4.4997488842712237e+01  4.5051160737811593e+01  4.5010536572476219e+01  4.4942218772833584e+01  4.5030429441817077e+01  4.4999886310711084e+01  4.5024849117968529e+01  4.5001189032075864e+01  4.5004732470809294e+01  4.4996176164721099e+01  4.5013142486333479e+01  4.4983793435224769e+01  4.4970440040670127e+01  4.4996120765358938e+01  4.4984171370623095e+01  4.4990541078549484e+01  4.4997470040219817e+01  4.5005245718429528e+01  4.4989346365630695e+01  4.4921904862344547e+01  4.4982015856742770e+01  4.4998717750707762e+01  4.4982701080919227e+01  4.5001787908630696e+01  4.5014681534419957e+01  4.5009805153872740e+01  4.5030717239529068e+01  4.5032123500405589e+01  4.5060709290552523e+01  4.4841966909151253e+01  4.4970143614222721e+01  4.5005284190940856e+01  4.4980809131694606e+01  4.4970942283837026e+01  4.4991190961340465e+01  4.4996503448511042e+01  4.5019714966021255e+01  4.5037554248588172e+01  4.5021736572652152e+01  4.4988034237338752e+01  4.5008121529855842e+01  4.4994963444315445e+01  4.4984807845554286e+01  4.5004720302278308e+01  4.5004679874518793e+01  4.4919416846939022e+01  4.4950273136464212e+01  4.4953595211893145e+01  4.4999990908748124e+01  4.4962496839616634e+01  4.5018687969413818e+01  4.4997726728540520e+01  4.5017463581808229e+01  4.4986232416970076e+01  4.4940951773674655e+01  4.4949430529927028e+01  4.5027393985363709e+01  4.5006424455942408e+01  4.4982421225338598e+01  4.5010318973807493e+01  4.4991237314135063e+01  4.5023463697356448e+01  4.4991514427331204e+01  4.4994083631385202e+01  4.4993371822674398e+01  4.5015673486892098e+01  4.4998280777295570e+01  4.4998928469396851e+01  4.5055786853383935e+01  4.5017098199504062e+01  4.5045134953241394e+01  4.5032063995945542e+01  4.4851110555866867e+01  4.4997559373039309e+01  4.4988099676625254e+01  4.5137919999126687e+01  4.5023845657324770e+01  4.5009780236591176e+01  4.5022330385102201e+01  4.5033492299944839e+01  4.4968523755643886e+01  4.5009193784340198e+01  4.4958983304717030e+01  4.4987625950181588e+01  4.5015873281584021e+01  4.5002926481214921e+01  4.4965806483431265e+01  4.5014945820541811e+01  4.4992741435203229e+01  4.4998115187127674e+01  4.5024114468951716e+01  4.4998193806488871e+01  4.4999108671439380e+01  4.4979239563050953e+01  4.5007512858984853e+01  4.5001267526379884e+01  4.4998961688104608e+01  4.5004479115686344e+01  4.4986873800113933e+01  4.5005457429197996e+01  4.5004479264374034e+01  4.5001698627952301e+01  4.5003745181602561e+01  4.4997772709484344e+01  4.4987244724550237e+01  4.4999833666630785e+01  4.5000773082505027e+01  4.5001449731980173e+01  4.5000447618990236e+01  4.4998844597333857e+01  4.5001753538381806e+01  4.4999427246758167e+01  4.5000536300692779e+01  4.4998815842122411e+01  4.4998261448243554e+01  4.5000416010560485e+01  4.5002501977323568e+01  4.4999561667904132e+01  4.4997682680332368e+01  4.5001440618687063e+01  4.4999403426574638e+01  4.4998966280916655e+01  4.5002075906580878e+01  4.5000657006993599e+01  4.5000105211083095e+01  4.5000493026684431e+01  4.5002988035729302e+01  4.5001122944461770e+01  4.5008803239846245e+01  4.5002454124947747e+01  4.5000603079699012e+01  4.5001134770570140e+01  4.5000735752206907e+01  4.5000783314834877e+01  4.5003285815224608e+01  4.5000239273919469e+01  4.4999982175439776e+01  4.5001609734373545e+01  4.5000389465653207e+01  4.5000304559616232e+01  4.5004653020834454e+01  4.4999530436812769e+01  4.5003179001661437e+01  4.4999580361770789e+01  4.5000770321032242e+01  4.4999913411431976e+01  4.5000649917816553e+01  4.5000422300939384e+01  4.4989889399085428e+01  4.5014794564199462e+01  4.4998009246459972e+01  4.5001891192035067e+01  4.4994162677341315e+01  4.4997217756338998e+01  4.5017227010333436e+01  4.5001307633105270e+01  4.499083376876460