<?xml version="1.0"?>
<VTKFile type="UnstructuredGrid"  version="0.1"  >
<UnstructuredGrid>
<Piece  NumberOfPoints="6553" NumberOfCells="30513">
<Points>
<DataArray  type="Float64"  NumberOfComponents="3"  format="ascii">7.00785934293418 17.09169240803801 3.697110561988304  6.779112204959318 17.76618617917399 3.538226284841292  6.637646535503122 17.15380686067784 3.511972011470633  6.639221416655912 17.37461304825852 4.021928813272519  6.270583490377645 17.65753368847903 4.346747064556735  6.269008609224855 17.43672750089835 3.836790262754848  6.267433728072064 17.21592131331766 3.326833460952961  5.922110080718994 18.71879959106445 7.803921222686768  6.530728540969891 18.60301000652926 7.305239495589092  6.466751537872357 19.05860025463717 7.585484561278179  5.966125965118408 18.72605514526367 7.313880681991577  5.986087083816528 18.26320934295654 7.523676156997681  6.050064086914062 17.80761909484863 7.243431091308594  6.030102968215942 18.27046489715576 7.03363561630249  6.010141849517822 18.73331069946289 6.823840141296387  6.306749104187887 16.8008085922901 3.841070604963615  6.308323985340678 17.02161477987079 4.351027406765502  6.676961911618944 16.73869413965028 4.026209155481287  6.34606448030371 16.38569587126254 4.35530774897427  11.18612003326416 18.74296951293945 6.585729122161865  11.01468591096983 18.51802926826649 7.331285899938079  11.13574921804002 18.12573033044058 6.901105443482482  10.81453807177894 18.56422173192208 6.702032827643905  10.44295611029373 18.38547395090471 6.818336533125945  10.64310394948462 18.33928148724912 7.447589605420118  10.7641672565548 17.9469825494232 7.017409148964521  11.08537840281588 17.50849114794169 7.216481764803098  10.96431509574569 17.90079008576761 7.646662221258696  10.8432517886755 18.29308902359353 8.076842677714293  8.447079193868165 18.2465432575811 5.140560955764777  8.115814296000252 18.01599873633587 5.649986794338801  7.702361773570024 18.28149566273131 5.192609941582346  7.410401457863101 18.7086490127607 5.741054503247175  8.155118878161241 18.67369660761048 5.689005517429606  7.78454939813234 17.78545421509065 6.159412632912824  7.371096875702111 18.05095114148609 5.70203578015637  7.823853980293329 18.44315208636526 6.198431356003629  9.097594261169434 17.70449066162109 4.270771980285645  8.202857391134739 18.09701027322695 4.184992592751797  8.333728965678972 17.78991150039966 4.661271069202116  8.772336727518798 17.97551695960109 4.70566646802521  8.658986499329608 17.51888520241966 4.226376581462549  8.220378737489781 17.33327974321823 4.181981182639455  10.11382007598877 18.06389999389648 5.62407112121582  9.240803160370284 17.75723812403727 5.602915497059774  9.55569259137004 17.65878841700602 5.927865476841879  9.695911537868415 18.26335332587308 6.024080109089972  9.278002999748061 18.46280665784968 6.424089096964125  9.137784053249685 17.85824174898261 6.327874464716031  8.997565106751308 17.25367684011556 6.231659832467936  9.882404804229736 17.69577026367188 5.39182448387146  9.798930644989014 18.16234970092773 5.299121141433716  9.484041213989258 18.26079940795898 4.974171161651611  9.56751537322998 17.79421997070312 5.066874504089355  9.650989532470703 17.32764053344727 5.1595778465271  9.324277319611006 17.29065868678141 5.695618839497518  7.863158562454318 19.10084995763987 6.237450079094434  8.314977405754142 19.05132196594881 7.536933841847  8.5558396421778 18.34399093877335 7.104486471060138  7.848417423530929 18.66301258866844 7.011166962125293  7.833676284607539 18.22517521969702 7.784883845156151  7.940802097320557 17.64418029785156 1.74254298210144  7.647115468978882 17.37144565582275 1.08738499879837  7.10802977058411 17.61512087461359 1.661523455895697  7.825138568878174 17.28220558166504 1.475488483905792  7.709475040435791 16.92023086547852 1.208433985710144  6.992366242141728 17.25314615842706 1.394468957700049  7.281387321363819 18.35243052487333 7.072442888788077  7.43727577874002 19.24962543792488 6.802248989482012  7.42253463981663 18.81178806895346 7.57596587251287  7.01139299502572 19.39840091820989 7.367047899869589  6.870245676572909 18.93904337412977 6.863524916144796  6.729098358120098 18.47968583004964 6.360001932420003  6.960754422662514 17.83339415270282 4.064369828364987  7.329392348940782 17.55047351248231 3.739551577080772  7.650925354947383 18.0092546169266 3.78199259217324  7.124524836893663 17.65073518519392 5.091434847934306  6.780994405446544 17.32127799549268 4.642478916512716  6.443355658999035 17.53406103904466 5.050119191129099  6.957644353271883 18.31644806788152 5.244658927399915  6.786886090446154 17.86351822874591 5.499075122550689  6.616127827620424 17.41058838961029 5.753491317701463  6.953766574067933 17.1978053460583 5.34585104308508  7.291405320515442 16.98502230250632 4.938210768468697  7.25682387812622 18.13257002257015 6.259707282666414  5.889308929443359 17.61898994445801 5.532374858856201  6.252718378531892 17.51478916703415 5.642933088278832  6.423476641357621 17.96771900616977 5.388516893128058  7.869242257191804 17.61578278004371 5.039385862116737  7.755892029002611 17.15915102286227 4.560095975554076  7.589011545380832 17.82486390554988 4.713320055019685  8.415620695679424 17.73942602990629 7.008271838812044  8.531276198940201 18.12413043647016 6.291750864938475  7.80911284136994 18.00531471739384 6.972148239034487  8.391057252441824 17.51956552760311 6.19553623269038  5.492682933807373 16.86235046386719 2.585437059402466  6.368738377107147 17.6063669995923 2.459882848818735  6.150315365349318 16.96212115416532 2.439858804321502  5.880058330939718 17.03913588859242 2.956135260177713  6.537690762481663 17.13890657889056 2.810557005096749  6.807947796891263 17.06189184446346 2.294280549240538  5.808749437332153 19.12446975708008 7.528419494628906  9.732558964437763 18.06334183880459 7.928018438322594  9.860479555020895 18.42414030437719 6.621212815045035  9.571138030450605 17.80484238267068 7.027501192624193  9.864273061153147 17.14687810749168 7.630913288284262  10.15361458572344 17.7661760291982 7.224624910705103  10.86281967163086 17.9854907989502 6.172400951385498  10.25313440389799 17.87301449247076 6.544606971731357  10.27838809314125 18.2246869724006 6.221203827170882  10.46306618456656 17.6730229164935 6.221639180861133  10.65288789096229 18.18548237492745 6.495368742255721  10.48831987380981 18.02469539642334 5.898236036300659  10.08856638674551 17.71222751396665 5.947474265776294  10.06331269750226 17.3605550340368 6.270877410336768  8.722322150309736 17.75011004884833 5.686110394116357  11.90787029266357 18.65863037109375 7.085259914398193  11.37556104066954 18.47585969734364 7.581051296056243  11.49662434773973 18.08356075951772 7.150870839600646  11.54699516296387 18.7007999420166 6.835494518280029  8.848974672880344 17.68602666359435 7.707898566720207  8.717260576164959 18.60249039490726 8.005003716758539  9.600844867722378 18.9798055701175 8.225123588360926  9.430919083952228 17.20027747380362 6.931286560376099  8.686297332571664 19.42875851539351 8.57576356508147  7.802713041014244 19.05144334018328 8.355643693479081  11.02446985244751 18.36423015594482 6.379065036773682  10.83954524993896 18.75091934204102 6.291968107223511  10.49297046661377 18.75886917114258 5.998207092285156  10.46796328845375 18.57217156102364 6.40827181270555  10.67789506912231 18.37217998504639 6.085304021835327  6.021492958068848 18.11478042602539 6.225413799285889  6.318810392844636 17.76268440781784 5.989452558493676  5.955400943756104 17.8668851852417 5.878894329071045  6.025166988372803 17.73060512542725 6.279011011123657  6.028841018676758 17.3464298248291 6.332608222961426  6.322484423148591 17.3785091072197 6.043049770331445  5.959074974060059 17.48270988464355 5.932491540908813  6.726422173950674 17.8203542867243 6.735330677923471  6.669936908700837 17.28580556650463 6.432075370564201  6.378969688398428 17.91305782743937 6.346305077690714  6.376293504229004 17.25372628411403 6.721633823194182  6.72374598978125 17.16102274339897 7.110659423426938  6.672613092870261 17.94513710982996 6.056746625060732  7.537977359323891 17.38523825879848 5.548811700690761  11.02918822589271 18.11875187565987 6.727360748557601  11.40077018737793 18.29749965667725 6.611057043075562  11.6154203414917 17.85202980041504 6.636384963989258  11.23912000656128 17.91876029968262 6.404392957687378  10.63518476486206 17.62809562683105 6.009721040725708  10.26068496704102 17.6673002243042 5.735556125640869  10.40754985809326 17.27070045471191 5.847041130065918  10.23543127779776 17.31562774437436 6.058959270201343  9.67065784862516 17.91168084594324 6.347483253650447  9.963792879327702 17.25371657076424 6.950895349310515  9.530438902126782 17.30711593707618 6.251268621402351  9.049034363169433 17.78709189551418 5.150069401145938  6.38958122251708 18.14365246244914 6.801716511864298  6.386905038347656 17.4843209191238 7.177045257367766  6.03945255279541 17.57702445983887 6.78801965713501  9.857151114986481 17.34409778374204 5.715227628431934  8.504711558838885 17.87425477029075 3.860750603946375  6.489568655670365 18.21561424695346 5.735036363342902  5.772692203521729 16.85594940185547 4.804627895355225  5.847329811334106 16.86931297011613 4.181140984625074  6.021637846949687 17.25674154516725 4.575687479955979  6.059378341912719 16.62082263655901 4.579967822164747  6.035778522491455 17.96119976043701 6.734422445297241  6.375295658094473 18.29723312803752 6.292707865852946  5.660479068756104 16.61421966552734 3.504250049591064  5.799902481482931 17.21767039634389 3.210349785400492  5.963956398414084 16.9150704894225 3.415541755272013  7.471165337731413 17.49713845971646 4.360101680320969  7.304284854109634 18.16285134240406 4.513325759786578  5.716585636138916 16.73508453369141 4.154438972473145  6.003271774529907 16.49995776839494 3.929778899282667  7.146453236392023 18.63718339521859 8.161344095958091  6.877893182663266 18.47198740538074 7.79440253392146  6.532048762018585 16.92048585218089 4.8714193319119
[...]
<PointData  Scalars="p_CO2"> 
<DataArray  type="Float64"  Name="p_CO2"  format="ascii">4.4999169527537987e+01  4.5001097048246841e+01  4.4998886441623220e+01  4.5001310012464039e+01  4.5002144486566529e+01  4.5000801957679087e+01  4.4997880725639625e+01  4.4983008448481314e+01  4.5002103616375855e+01  4.4999828783562457e+01  4.4997671955152910e+01  4.5001622009578739e+01  4.4992045813310050e+01  4.5002158376774204e+01  4.4994285767329032e+01  4.4999203418692957e+01  4.4997323709152049e+01  4.4998756607335807e+01  4.4999139954703899e+01  4.5007148343092780e+01  4.4991581963757696e+01  4.4994922157315791e+01  4.4998866652364462e+01  4.5000456674886294e+01  4.4997869144056516e+01  4.4996906783117225e+01  4.4994337390568766e+01  4.5002016098093193e+01  4.4996871411580116e+01  4.5002099333060180e+01  4.5000283912751684e+01  4.5002121361089742e+01  4.4998822379427097e+01  4.5000582394161633e+01  4.4999153699569050e+01  4.4997892128386098e+01  4.4998893570683251e+01  4.5002349198762715e+01  4.4999706329694689e+01  4.4999629637287590e+01  4.5000032596191410e+01  4.4996202013490823e+01  4.5001378934894483e+01  4.5002422965722047e+01  4.5003178026088243e+01  4.4998652506388751e+01  4.5000223480826079e+01  4.4998424201939528e+01  4.4996879076609204e+01  4.5001200269174582e+01  4.5004802788967396e+01  4.4996063910182080e+01  4.5002826700656186e+01  4.5001849778306990e+01  4.5005918895234153e+01  4.5000825749844040e+01  4.4996829478443075e+01  4.5000221728699913e+01  4.4999280364772659e+01  4.4993726408106006e+01  4.5000549436750980e+01  4.4999118116065830e+01  4.4997646109176671e+01  4.4998774119601876e+01  4.5001341558720618e+01  4.4998003448970742e+01  4.5001470869859340e+01  4.5002098240564159e+01  4.5001109111451946e+01  4.5002849448623003e+01  4.5002349712683561e+01  4.5000948759905064e+01  4.5000185432154801e+01  4.5000052253070578e+01  4.4999133390816048e+01  4.4999029455509699e+01  4.4998964564418316e+01  4.5002396422948500e+01  4.4997937646831673e+01  4.4999395010369931e+01  4.5000392370326942e+01  4.5000862244229630e+01  4.5000957930810081e+01  4.4996312524505292e+01  4.5001371373138817e+01  4.4997211776980770e+01  4.5003318456186847e+01  4.5002758714784690e+01  4.4999733894941365e+01  4.5000290247218771e+01  4.4998298767421296e+01  4.5009027905084963e+01  4.4998700310362032e+01  4.4998831501110395e+01  4.5000698283804795e+01  4.4996687559460753e+01  4.5001504622435604e+01  4.4998503879148117e+01  4.5002606326111732e+01  4.4999074124577461e+01  4.4998295100603393e+01  4.4989674712385671e+01  4.4996223541246536e+01  4.4998724174744694e+01  4.5000274139442617e+01  4.4999439121984913e+01  4.4998840321004181e+01  4.5003925424814007e+01  4.4997133540389221e+01  4.5000606228818462e+01  4.5001280481981929e+01  4.4999861348888338e+01  4.5001893724631010e+01  4.5000389293180362e+01  4.4998994268017277e+01  4.4999103048163917e+01  4.5018715411362209e+01  4.4992215280900830e+01  4.5002502116282649e+01  4.5007568149879347e+01  4.4997314986003737e+01  4.4993671683598443e+01  4.5002086166585343e+01  4.5003463438734485e+01  4.5006647765907239e+01  4.5000974433210480e+01  4.5012525739371590e+01  4.5000823352678232e+01  4.4996884099375265e+01  4.5000749075823371e+01  4.4997110377106090e+01  4.4995872809950697e+01  4.5001041028450125e+01  4.4998143328601486e+01  4.4999951910404100e+01  4.4998096833809633e+01  4.5000514865043527e+01  4.5002248109732356e+01  4.4999273092435708e+01  4.5000448716157962e+01  4.4998831133569574e+01  4.5000358679858451e+01  4.5000670957428028e+01  4.5000002129295503e+01  4.5001025917640241e+01  4.4997876946168503e+01  4.4972780383166089e+01  4.4998718712703102e+01  4.4990031172289392e+01  4.4999697386696916e+01  4.4998528351588050e+01  4.4996409470605244e+01  4.5001527563656907e+01  4.5001593436807966e+01  4.5000302797314411e+01  4.4998273498506322e+01  4.4995064363900873e+01  4.4998751006315700e+01  4.4998870278554996e+01  4.5002342314844512e+01  4.4998605273064335e+01  4.4995801162950180e+01  4.5003937203558849e+01  4.4994818541932553e+01  4.5001340022536986e+01  4.5001416698754205e+01  4.4999803824356420e+01  4.5006982281733308e+01  4.5001330737546098e+01  4.4990679716889282e+01  4.5003027110704394e+01  4.5003840141469247e+01  4.4999819604278528e+01  4.5000067649308590e+01  4.4995781004284417e+01  4.5001498043216323e+01  4.5007471270154625e+01  4.5001376397878261e+01  4.5001801362209967e+01  4.4999212014536766e+01  4.5001187030832860e+01  4.4997915415787290e+01  4.4999128105964459e+01  4.5000038574082332e+01  4.4991508790443454e+01  4.5000905963673702e+01  4.4998456466000675e+01  4.4999072874450668e+01  4.4997524385919782e+01  4.5000993145440887e+01  4.5003887313816840e+01  4.4996679902478398e+01  4.4998826421083876e+01  4.4994174033187861e+01  4.4980149797507543e+01  4.5017556769601008e+01  4.4999127374036988e+01  4.4999944236140550e+01  4.5003398523620412e+01  4.5003746890207502e+01  4.5001511372251869e+01  4.4999045143491308e+01  4.4998766371453165e+01  4.4999853433120279e+01  4.4998654702247833e+01  4.5005348927895263e+01  4.4998061562210111e+01  4.4999621145312489e+01  4.4996379396249324e+01  4.4994066753144153e+01  4.4999918715132686e+01  4.4997771505357044e+01  4.5001684332516930e+01  4.5016664121121266e+01  4.5009016150955070e+01  4.4998542816007152e+01  4.5005206583923965e+01  4.5003563428561428e+01  4.5000943179215923e+01  4.5006043686854547e+01  4.4993906143683830e+01  4.4999028739570853e+01  4.4977131211155445e+01  4.5015439415532363e+01  4.4993632057943465e+01  4.5007518398740878e+01  4.4988834874953746e+01  4.4999292022395593e+01  4.4997104075556713e+01  4.5001883317642495e+01  4.5013570476566876e+01  4.4997175327996736e+01  4.5010957369793040e+01  4.5003117014128620e+01  4.4993599973949301e+01  4.4988299439831792e+01  4.4998570593642647e+01  4.4995667283405311e+01  4.4999372322165151e+01  4.5007978739072627e+01  4.4997064024321659e+01  4.5007222862149234e+01  4.4989717051277459e+01  4.5005362223362702e+01  4.4999417715377994e+01  4.4999639115899015e+01  4.4996425385691936e+01  4.5001537319221661e+01  4.5003399484620807e+01  4.5009241217328082e+01  4.5011615026501062e+01  4.5000205599316843e+01  4.5009089515862144e+01  4.4993979161530547e+01  4.4994224257897230e+01  4.5007172968448891e+01  4.4998390790840119e+01  4.4990050888641740e+01  4.4998306709594310e+01  4.4997962275426765e+01  4.4998318457190223e+01  4.4991524537765258e+01  4.4999240976133088e+01  4.5001819074513222e+01  4.5001318341032764e+01  4.5006620960571510e+01  4.4994950996099092e+01  4.5007989280578130e+01  4.4997066930096025e+01  4.4994741411509061e+01  4.5003180741030370e+01  4.5005784832069637e+01  4.4998969998197467e+01  4.5000794128445868e+01  4.5000158817408519e+01  4.5002154878089868e+01  4.5001724592170639e+01  4.5003456428816541e+01  4.5000705517735248e+01  4.4999451599785239e+01  4.4999726091485599e+01  4.4996709469969268e+01  4.4995018063164665e+01  4.5000338343294288e+01  4.5001215127910811e+01  4.4994709994783740e+01  4.5001610603146489e+01  4.4999463536593545e+01  4.5001959880604815e+01  4.5001347025097459e+01  4.5003225945895416e+01  4.5000677261458385e+01  4.5004102687729294e+01  4.4996292746200773e+01  4.4997373460240084e+01  4.4995481065280295e+01  4.5000087090021701e+01  4.4998773820838267e+01  4.4991885540660810e+01  4.5000266965627588e+01  4.5000097511748443e+01  4.4992224078845204e+01  4.5006104520732393e+01  4.5011297418009399e+01  4.4993149759353727e+01  4.4997417229608125e+01  4.4992821994460215e+01  4.5000097137635095e+01  4.5020925128810475e+01  4.5009979295942458e+01  4.4995245807807912e+01  4.4996287618900858e+01  4.4998719037897210e+01  4.4997586493925432e+01  4.5001505136203242e+01  4.5000452290181208e+01  4.5002999256713935e+01  4.4997021758091428e+01  4.5000088576087215e+01  4.4996260200286066e+01  4.4999130619129282e+01  4.5000044763697446e+01  4.5000579704339835e+01  4.5004358142861797e+01  4.5004017959238617e+01  4.5004660076133085e+01  4.5003519182365260e+01  4.5000684404834850e+01  4.4996114463415559e+01  4.4995033361858802e+01  4.4999426981190453e+01  4.4994833663851118e+01  4.4997083211254868e+01  4.4996133754356812e+01  4.4998402024085976e+01  4.5001621852282128e+01  4.4998728864200999e+01  4.4996284633897623e+01  4.5004985359892594e+01  4.5000392680506913e+01  4.5002501562207087e+01  4.5002901674084328e+01  4.4998364647984324e+01  4.5004903342448010e+01  4.4997618112405277e+01  4.5013260169234947e+01  4.5002484463971520e+01  4.4993569820738514e+01  4.4992186474210733e+01  4.5000366482942567e+01  4.4999633497725895e+01  4.4999858158369911e+01  4.4999461846991842e+01  4.4998316062365575e+01  4.5004414211517158e+01  4.5011078439776156e+01  4.4999542482985262e+01  4.5010991399817485e+01  4.5006213823347125e+01  4.4996160120559068e+01  4.5001592402049610e+01  4.4999962066502555e+01  4.5002262832659056e+01  4.4995684189556691e+01  4.4999716964406161e+01  4.4997934899295942e+01  4.4995262730661764e+01  4.5000570966778938e+01  4.5009775078679795e+01  4.4984795097838507e+01  4.4998278439120959e+01  4.5003440485013279e+01  4.5006740717244142e+01  4.4991601332304334e+01  4.5004661827406281e+01  4.5001148015801256e+01  4.5007044796589852e+01  4.5001855576819345e+01  4.5027539946103680e+01  4.4981066327048417e+01  4.4995652124808231e+01  4.4999114063339825e+01  4.5019642067568547e+01  4.4936208581873622e+01  4.5006027098153233e+01  4.4994738619297806e+01  4.5019692163923239e+01  4.5001945031613786e+01  4.4999400510781754e+01  4.5006314917999447e+01  4.4998490497321214e+01  4.4997783363856804e+01  4.4997630828438830e+01  4.5004757379619747e+01  4.4999799971910001e+01  4.4998283717312468e+01  4.5000824079001774e+01  4.4997425036472634e+01  4.5000534655391391e+01  4.5001005283658849e+01  4.4997253587666641e+01  4.5001240003490473e+01  4.4997688816402828e+01  4.4994283703961663e+01  4.5001805882847016e+01  4.5007878677923834e+01  4.4988088999856785e+01  4.4980726219384692e+01  4.4963123798123846e+01  4.5011227892934322e+01  4.4988049725989661e+01  4.4996929140780651e+01  4.5011300965267750e+01  4.5008710374581362e+01  4.5001253241898802e+01  4.5003626067525254e+01  4.5010526013492047e+01  4.4996091740131853e+01  4.4999165411815454e+01  4.5001542752058739e+01  4.5003944813930268e+01  4.4992305057991949e+01  4.4977258918512433e+01  4.4986681823677650e+01  4.4994508499249918e+01  4.5009134011908294e+01  4.5006012319499355e+01  4.5015793074221968e+01  4.5003176099378223e+01  4.5007788405607364e+01  4.5013730469760709e+01  4.4996848364833383e+01  4.5008744621872793e+01  4.5000443392483668e+01  4.5000775857100194e+01  4.4998519261375563e+01  4.4999095876915682e+01  4.4999981909280677e+01  4.4991669969589076e+01  4.4993664243998609e+01  4.5009399704245354e+01  4.4995077589257527e+01  4.5020062343423156e+01  4.5011411979251612e+01  4.5000261518852192e+01  4.5001422306344089e+01  4.4999189388013974e+01  4.5002462170229919e+01  4.4999291930027233e+01  4.4996044973847596e+01  4.4997901297162109e+01  4.5001587789932302e+01  4.4996441364331538e+01  4.4998260594770251e+01  4.5001597186924357e+01  4.4996202425872859e+01  4.4999128667419242e+01  4.5008548480291822e+01  4.4997801106363767e+01  4.4996819122850553e+01  4.5002119023403104e+01  4.4991720841773649e+01  4.5004011985055214e+01  4.4995748540159589e+01  4.5013975780330306e+01  4.4988160039755009e+01  4.4992619166949446e+01  4.4998818588052544e+01  4.4990389660970600e+01  4.4978262475850840e+01  4.4986913956634595e+01  4.5010162473868789e+01  4.4998101730530315e+01  4.4996376354777418e+01  4.4999097910603695e+01  4.4999243389829715e+01  4.4994380217065299e+01  4.5019334148257137e+01  4.5033542682677243e+01  4.4983962443753995e+01  4.4998252853565880e+01  4.4979272929261491e+01  4.5001057970335168e+01  4.5008342926522431e+01  4.4998636165653195e+01  4.5010688893589112e+01  4.4995938355486459e+01  4.4995578260952506e+01  4.5005709776601947e+01  4.4999518497834138e+01  4.4999772079380236e+01  4.5001163832644473e+01  4.4994191289115641e+01  4.5005424347393188e+01  4.4992268417325960e+01  4.4994104909599493e+01  4.5012409759303210e+01  4.4982709968151092e+01  4.4974707441289645e+01  4.4962376879053167e+01  4.4973135214451233e+01  4.4976163668890059e+01  4.5012932633649690e+01  4.4989410241060781e+01  4.5025855037406053e+01  4.5009651617640159e+01  4.4990972985155537e+01  4.5012815784206303e+01  4.4965699477995777e+01  4.5028434284505728e+01  4.5042690398640985e+01  4.4996962467471775e+01  4.5006755835482068e+01  4.4995119955000334e+01  4.5008346081374476e+01  4.5004956677768639e+01  4.4998504057606880e+01  4.4998247387583270e+01  4.5003141852724482e+01  4.4995604238418281e+01  4.5006453067857940e+01  4.4998507491716161e+01  4.4988477378350979e+01  4.5017510491832148e+01  4.5009512505263764e+01  4.5005596622820256e+01  4.5003148378557974e+01  4.4994381729263623e+01  4.5003168277976492e+01  4.5008164447600699e+01  4.4998167099243247e+01  4.5001267986642283e+01  4.4999707114749015e+01  4.5009014925016771e+01  4.5002081693939139e+01  4.4999061920184964e+01  4.4994565988980391e+01  4.5026040780450643e+01  4.5014293285540248e+01  4.4981704696648031e+01  4.4996539225223735e+01  4.5004971045825741e+01  4.4995514272361312e+01  4.5007392678803598e+01  4.5047305621587817e+01  4.4994036055741063e+01  4.5005750276634487e+01  4.4992713013478678e+01  4.4991607948895705e+01  4.4997998288437607e+01  4.4998751925491504e+01  4.5001424831101907e+01  4.5000407582278505e+01  4.4975430677460224e+01  4.4975367240754174e+01  4.5009996187503049e+01  4.5031575784354260e+01  4.4989990454091014e+01  4.4986149332788621e+01  4.4983654473876044e+01  4.5013927866584147e+01  4.5030556070870446e+01  4.4999560341499681e+01  4.4988952705958908e+01  4.4999519604451706e+01  4.5005006688300355e+01  4.4994638003842041e+01  4.4998253727429628e+01  4.4990088115389561e+01  4.5011834849004146e+01  4.5009845282703914e+01  4.5008474388527098e+01  4.5021438216278078e+01  4.4928399881157098e+01  4.5001472469664705e+01  4.5003633827566496e+01  4.4997593478322507e+01  4.4992474810292144e+01  4.4988066540560077e+01  4.5008164227943809e+01  4.4991282679897488e+01  4.4996009035055934e+01  4.5002818916575933e+01  4.5013864154561219e+01  4.4990155820474634e+01  4.5002297238154711e+01  4.5002639260566788e+01  4.4997772261993639e+01  4.5025538941122207e+01  4.5048232418812567e+01  4.4989001631687557e+01  4.5004873009611060e+01  4.5021842104838463e+01  4.5023959089594527e+01  4.4961787172361667e+01  4.4986500631614774e+01  4.4981291761105354e+01  4.4988606454521836e+01  4.5001570536070602e+01  4.5001697650153929e+01  4.4995489438365745e+01  4.4992276215439340e+01  4.5002088330869626e+01  4.4997568179095296e+01  4.5024716220796215e+01  4.5034993176178745e+01  4.4978349507783086e+01  4.4975678018009098e+01  4.5029374010618966e+01  4.5053392421639884e+01  4.4937962813254558e+01  4.4992606550910224e+01  4.4981193805026159e+01  4.5011822131980360e+01  4.4998489650032319e+01  4.4998766924555134e+01  4.5006600372723945e+01  4.5020827407881541e+01  4.4996148985542902e+01  4.5002841355861911e+01  4.5000341342708332e+01  4.4998824693459760e+01  4.5001773293940062e+01  4.5009544447915140e+01  4.5005239004958177e+01  4.4988129097766404e+01  4.4993468115143344e+01  4.5000038480517752e+01  4.4999033084483472e+01  4.4999655004714484e+01  4.4999090442227519e+01  4.5001091883583136e+01  4.5001641423359239e+01  4.5000789861023009e+01  4.5006448965251309e+01  4.5015405552726499e+01  4.5000710021234909e+01  4.5004140422225383e+01  4.5006415544885918e+01  4.4985448644086738e+01  4.5029049666735389e+01  4.4964380174390584e+01  4.4992420300468204e+01  4.5000990949870570e+01  4.5006389520416022e+01  4.5000779349452102e+01  4.5001815344746070e+01  4.5004064186333125e+01  4.4997305489526561e+01  4.4999397330986540e+01  4.5000337739322603e+01  4.4997867721204287e+01  4.4999762988925319e+01  4.5005485842723743e+01  4.5001016716097034e+01  4.4964275178679358e+01  4.4998252115682057e+01  4.4996775772884881e+01  4.5012527437958788e+01  4.4989689221349430e+01  4.5006766852339545e+01  4.5007281479600785e+01  4.5001210990611341e+01  4.4998328818208037e+01  4.4998651040889754e+01  4.4996818539348951e+01  4.5006119899837707e+01  4.4988094048249295e+01  4.4998078459603754e+01  4.5004515416483315e+01  4.4999033786978970e+01  4.5000451764954484e+01  4.4998130961625989e+01  4.5003169268495306e+01  4.4995207743682968e+01  4.5007340109776791e+01  4.4991610238873598e+01  4.5001714008636320e+01  4.5003032173638616e+01  4.4999986091475961e+01  4.4976673306456860e+01  4.4983298111838110e+01  4.4976409740220845e+01  4.4998860949527639e+01  4.4999620609159059e+01  4.5002250291236990e+01  4.5001787531453644e+01  4.4997967053138034e+01  4.4992749703281362e+01  4.5001668543428593e+01  4.5003477449963505e+01  4.4998016861030564e+01  4.5005869722236930e+01  4.5002031176636216e+01  4.5021800970495924e+01  4.4982638669736303e+01  4.4999868580804552e+01  4.5007614145913266e+01  4.5003975813709083e+01  4.4984969731373901e+01  4.4984315468331921e+01  4.5004861925265928e+01  4.4995273840603133e+01  4.4993608431418565e+01  4.4992603372242911e+01  4.4982964141982208e+01  4.4950049408495111e+01  4.4986927679680868e+01  4.4993022602434280e+01  4.5002880454303096e+01  4.5000161270117303e+01  4.5000931424065385e+01  4.5007876668018099e+01  4.4987625960417311e+01  4.5006526399635433e+01  4.4994544153954720e+01  4.4993489193571179e+01  4.4997761685470977e+01  4.4997376857422303e+01  4.5007597949655505e+01  4.4998239352197075e+01  4.5007043384671753e+01  4.4993558354464469e+01  4.5003808512751895e+01  4.4993601897366290e+01  4.4993835184483316e+01  4.4992574767471012e+01  4.4998711276798275e+01  4.4988901555692060e+01  4.5010303072663021e+01  4.4993512251464459e+01  4.4987914047906095e+01  4.4994170878460203e+01  4.5034289726882207e+01  4.5012114885759800e+01  4.5034673465964197e+01  4.5018799667113697e+01  4.4967196824455989e+01  4.4984671061763635e+01  4.4942212668874866e+01  4.5005902638629806e+01  4.4993946982454602e+01  4.4995916860442115e+01  4.4986641843922278e+01  4.4990215022678889e+01  4.4999349208060174e+01  4.4968180366500647e+01  4.4999196863061158e+01  4.5000246314036524e+01  4.5000922064985666e+01  4.4998985235305440e+01  4.5008976170389523e+01  4.4993125917919798e+01  4.5036293351877461e+01  4.4997297391183899e+01  4.5011619814672279e+01  4.5000721120081685e+01  4.5006197851077594e+01  4.5001262132969593e+01  4.5001006902683336e+01  4.5001786066002609e+01  4.5000154264495066e+01  4.4989653395510551e+01  4.5000056753002845e+01  4.5004248247864425e+01  4.5001714173473097e+01  4.4996467976013783e+01  4.4996705331646474e+01  4.5000728773066115e+01  4.5013686288421390e+01  4.5001990543437451e+01  4.5003182696033207e+01  4.4992971098443647e+01  4.5006040589058536e+01  4.5002302021118574e+01  4.5004459711514805e+01  4.4999026154890998e+01  4.5002966682127443e+01  4.5000075449238196e+01  4.4999362416360306e+01  4.5000395037860159e+01  4.4960913329507498e+01  4.4975361121861958e+01  4.5008602382427959e+01  4.4997916018464387e+01  4.5014477612886566e+01  4.4990694996658341e+01  4.5006676679349752e+01  4.5000768758889485e+01  4.4988726550426755e+01  4.4980476596095237e+01  4.5002284342325076e+01  4.4997714483287190e+01  4.5007249998643744e+01  4.5000394416505237e+01  4.4999412140438039e+01  4.4996116211946550e+01  4.5002231585455711e+01  4.5005270594726994e+01  4.5008083381366795e+01  4.5003073196379191e+01  4.5000098738665102e+01  4.4957070301136177e+01  4.4978178562268063e+01  4.5039743121379615e+01  4.4997867583077806e+01  4.5008673028755247e+01  4.4991904849800228e+01  4.4996830203880108e+01  4.4990039464440677e+01  4.5004824687001680e+01  4.5010661694351974e+01  4.4976580136353945e+01  4.4966895540256928e+01  4.5002207371229659e+01  4.5008941680651766e+01  4.5001831153460707e+01  4.5003753300831086e+01  4.4997772999169527e+01  4.4997854563041336e+01  4.5006280691894311e+01  4.5010818399081231e+01  4.4990247590507053e+01  4.4981244409958293e+01  4.4983802789177204e+01  4.4996841474384553e+01  4.4971881377059631e+01  4.4990883735667147e+01  4.4999780482358503e+01  4.499493833428987