<?xml version="1.0"?>
<VTKFile type="UnstructuredGrid"  version="0.1"  >
<UnstructuredGrid>
<Piece  NumberOfPoints="6740" NumberOfCells="31705">
<Points>
<DataArray  type="Float64"  NumberOfComponents="3"  format="ascii">25.08263969421387 4.516293048858643 30.42457008361816  25.74860368462165 5.165513547436614 30.87089737215815  25.65385172864236 4.893309701735483 31.22324790486387  25.12221754740817 4.851482723304645 30.98048960804854  25.21696950338747 5.123686569005777 30.62813907534283  25.61427387544805 4.558120027289481 30.66732838043349  26.14590805668223 4.599947005720319 30.91008667724881  25.16179540060248 5.186672397750647 31.53640913247892  25.25654735658177 5.458876243451779 31.18405859977321  25.35129931256106 5.73108008915291 30.83170806706749  26.14797104382165 5.271267317429299 31.26236448486109  26.15003403096106 5.94258762913828 31.61464229247336  25.75066667176106 5.836833859145595 31.22317517977043  25.65591471578177 5.564630013444464 31.57552571247614  28.20351028442383 6.074595928192139 33.01107025146484  28.14040753988096 5.962856239899702 32.32086875407641  28.0085677876837 5.757604784592695 32.73313834636156  28.44927978515625 5.945251941680908 32.59410095214844  28.33535003662109 6.279847383499146 32.59880065917969  28.46718978881836 6.485098838806152 32.18653106689453  28.58111953735352 6.150503396987915 32.18183135986328  28.69504928588867 5.815907955169678 32.17713165283203  28.25433728841612 5.628260798081465 32.31616904704516  27.81362529094356 5.440613640993252 32.45520644125828  28.51440620422363 8.890121459960938 32.10739898681641  28.22217581645938 8.489948461762305 31.46454372812817  28.43649474924663 9.090693457425374 31.52157429844247  28.07145712749453 8.734011839142676 31.82318153788158  28.66512489318848 8.646058082580566 31.74876117706299  28.81584358215332 8.401994705200195 31.39012336730957  28.58721343821148 8.846630080045003 31.16293648868905  27.62850805076544 8.577902218324414 31.53896408894676  27.99354567251753 8.934583836607112 31.23735684950765  28.35858329426963 9.29126545488981 30.93574961006853  25.80500030517578 7.391848087310791 31.88694953918457  26.09542810564841 7.031148835452416 31.34304794429939  25.62986469268799 7.155466079711914 31.53536510467529  25.83344554901123 7.481537103652954 31.38122463226318  25.4547290802002 6.919084072113037 31.18378067016602  26.70085041614345 5.384229261555632 31.60143972382287  26.56492761557277 5.775222335980786 31.00858703922166  24.73113059997559 5.314251899719238 30.67795944213867  25.16609956167604 5.494521158010294 30.40834861666363  25.04121495626833 5.522665994436075 30.75483375460308  25.22068627688506 5.443986133994057 30.496092670912  25.71024195379453 5.573720368268877 30.31422589968532  25.5307706331778 5.652400228710894 30.5729669833764  27.11867904663086 12.69825649261475 31.20135498046875  27.48767232768289 12.41231589407927 30.97366452439247  27.03457546234131 12.53935527801514 30.6683292388916  27.37868881225586 12.8019118309021 30.81308460235596  27.63869857788086 12.90556716918945 30.42481422424316  25.36425245951755 4.573324177810566 31.34917914509688  25.32467460632324 4.238134503364563 30.7932596206665  25.56670951843262 3.959975957870483 31.16194915771484  25.85630878755742 4.279961481795401 31.03601791748183  27.98864958660098 8.323570917359229 31.89917030741283  28.58231735229492 8.235617160797119 31.82474994659424  28.43159866333008 8.47968053817749 32.18338775634766  28.34879112243652 8.069239616394043 32.25937652587891  28.37430000305176 5.645392417907715 32.74037551879883  28.18340969085693 5.650510549545288 33.07759094238281  28.16330909729004 5.226425170898438 33.14411163330078  27.9884671941168 5.333519405945845 32.79965903727953  28.35419940948486 5.221307039260864 32.8068962097168  28.54508972167969 5.216188907623291 32.46968078613281  28.17935750631163 5.328401274308272 32.46244361369555  24.49155044555664 6.0123610496521 31.98550987243652  25.04958761881931 5.779596183845417 31.46126925587569  24.82667292307956 5.599516723701374 31.76095950245772  24.53919982910156 5.926268577575684 31.58701515197754  24.71446514129639 6.192440509796143 31.68581962585449  24.93737983703613 6.372519969940186 31.38612937927246  24.76211452484131 6.106348037719727 31.28732490539551  24.58684921264648 5.840176105499268 31.18852043151855  24.87432230662448 5.513424251624958 31.36246478199874  24.84830570220947 5.629469394683838 30.32592487335205  26.98880765359708 6.374458667227195 31.28713302612434  26.87089671601709 6.010527689999314 31.69488099765392  27.2857903006288 5.843162396841821 31.08882574440222  26.26794496854104 6.30651860636616 31.20689432094378  27.59175940107312 6.07846775086035 31.77511970283447  26.38585590612103 6.67044958359404 30.7991463494142  26.55604329871848 7.402956637999853 31.74447267333692  26.58448854255393 7.492645654342017 31.23874776641553  27.30708629226118 7.414065188688915 31.60199580748926  26.84647109919111 7.042257386141477 31.20057107845173  24.30348491668701 5.603543996810913 31.79139518737793  24.11541938781738 5.194726943969727 31.59728050231934  24.63860739420993 5.190699670860187 31.56684481739913  24.35113430023193 5.517451524734497 31.39290046691895  25.3964408240042 5.04500670856376 30.36939799165174  25.92807500523838 5.086833686994598 30.61215628846707  25.86857760934105 6.200764836373475 30.81542720824084  25.93013799237779 5.758153998703579 30.96443409607934  26.04804892995778 6.122084975931459 30.55668612454976  24.80893421173096 6.097039937973022 30.87152481079102  25.1443395747986 6.051800029546548 31.10891872316997  24.98419952392578 6.363211870193481 30.97032928466797  25.03101921081543 6.353903770446777 30.55452919006348  25.19115926168825 6.042491929799844 30.69311862856548  24.96907426260378 5.785628097326089 31.01011424929302  25.5437069339986 6.157553799539233 31.50038583587291  24.94646300028903 5.250462148734943 31.1071842873088  24.65898990631104 5.577214002609253 30.93323993682861  25.70843755846823 6.512176677020409 30.67683776973884  24.90688514709473 4.91527247428894 30.55126476287842  24.88107490539551 5.834077835083008 30.61624431610107  28.02733541606992 5.314287008158196 32.09570105413  25.81444014235753 4.314255977934792 31.66459018200253  26.10403941148234 4.634241501859709 31.53865894176951  25.61198308344246 4.927604197874873 31.85182016938457  26.06217076628244 4.6685359979991 32.16723120629021  24.60001945495605 4.503707885742188 31.19667053222656  24.88090742777927 4.845190141746418 31.36653983235274  24.84132957458496 4.510000467300415 30.81062030792236  25.08336448669434 4.231841921806335 31.1793098449707  25.40301419638063 6.325082080632974 31.00774436861675  25.92029249316062 6.794766827853539 30.99146350979011  25.24287414550781 6.636493921279907 30.86915493011475  27.90560243276426 4.951965756043501 32.49833228557055  28.0804443359375 4.844871520996094 32.8427848815918  28.27133464813232 4.839753389358521 32.50556945800781  27.99757957458496 4.46331787109375 32.54145812988281  28.62006950378418 5.516048431396484 32.32340621948242  28.11931255789062 4.825639123208445 32.13882689844226  28.13332102672549 7.938902805558081 31.61223926951  28.72698879241943 7.850949048995972 31.53781890869141  28.49346256256104 7.684571504592896 31.97244548797607  28.63813400268555 7.299903392791748 31.68551445007324  25.19605445861816 6.645802021026611 31.28495502471924  27.02553844451904 12.20986604690552 30.96373271942139  26.93239784240723 11.72147560119629 30.72611045837402  27.39453172557107 11.92392544837004 30.73604226334511  27.85666560873491 12.12637529554379 30.74597406831619  26.83680725097656 9.368141174316406 31.87141418457031  27.00614855663272 8.743545721283789 31.33906975199291  26.50264835357666 8.770010948181152 31.62606620788574  26.72915744781494 8.999486923217773 31.99218559265137  27.232657650871 8.97302169632041 31.70518913675854  26.61029815673828 9.138665199279785 31.50529479980469  26.3837890625 8.909189224243164 31.13917541503906  26.62150764465332 8.630832672119141 32.11295700073242  27.12500784770938 8.604367445221778 31.82596054483959  25.80238155558063 6.430835850625659 31.39921148131969  24.42327499389648 5.254489421844482 31.137619972229  26.90072367565127 8.347050379029151 31.52078667093823  26.96429696845725 8.022448930404028 31.85747640411084  26.39722347259521 8.373515605926514 31.80778312683105  26.17293930053711 8.116198539733887 31.50260925292969  26.74001279639915 7.765131864211401 31.55230253020947  27.46779717151331 7.995983703506665 31.57047994821801  29.15962028503418 10.64204216003418 30.51924705505371  28.70435363281315 9.979344756274031 30.23180668397762  28.5492804669196 10.05163756099205 30.64657204194882  28.58374339569157 10.39819660869102 30.37968723817684  29.12515735626221 10.29548311233521 30.78613185882568  29.28023052215576 10.22319030761719 30.37136650085449  29.09069442749023 9.94892406463623 31.05301666259766  28.00786650634896 10.15435105734787 30.24012742129997  24.35771942138672 4.849217414855957 31.39697551727295  24.66557502746582 4.908979892730713 30.93731498718262  26.64209747314453 9.712685585021973 30.9571647644043  27.13530276195498 9.145293901673194 31.24806442667553  26.51294326782227 9.310937404632568 31.04817008972168  26.73945236206055 9.540413379669189 31.4142894744873  28.1434043434809 5.947187853015014 31.97612567783325  28.02947459494574 6.281783294833251 31.9808253848645  27.70269234600834 5.759540695926801 32.11516307204638  28.72463886087994 9.62009475976302 30.99438313633309  28.1832249003093 9.722808256118839 30.58793851568425  25.98896980285645 7.754023313522339 31.69477939605713  27.42171310119947 5.452169322416666 31.68167842900343  27.25166680132583 4.825870893972983 31.58823715517238  27.53264604613469 5.133242267483118 32.02172179821533  26.27038368532354 4.263693943724722 31.30456879028456  25.98078441619873 3.943708419799805 31.43050003051758  26.39485931396484 3.927440881729126 31.69905090332031  26.22851504012364 4.297988439864113 31.9331410
[...]
<PointData  Scalars="p_CO2"> 
<DataArray  type="Float64"  Name="p_CO2"  format="ascii">4.4981915478807558e+01  4.4999420700621002e+01  4.5002544078011347e+01  4.5005870961693383e+01  4.4999220760001329e+01  4.4996159666473886e+01  4.5001547260908524e+01  4.5002150340904869e+01  4.5004538298551708e+01  4.5000023718000790e+01  4.5000960429102271e+01  4.4998351996130694e+01  4.5002273669384522e+01  4.5001893231512391e+01  4.5002796673084376e+01  4.4998850270393660e+01  4.5004269116352248e+01  4.4995589775219351e+01  4.5000935278607614e+01  4.5001930324947566e+01  4.5001373689401980e+01  4.5000039131339783e+01  4.4998744188216236e+01  4.4992874512772495e+01  4.5005181887617759e+01  4.4997811559604429e+01  4.5000089464177343e+01  4.4999730873971828e+01  4.4998789407956110e+01  4.4998684587762526e+01  4.5002518950605705e+01  4.4999059294969584e+01  4.4999423391631616e+01  4.5001476893648338e+01  4.5001285690617614e+01  4.5001822052256244e+01  4.5001942516124160e+01  4.5001891241190592e+01  4.4998308927665512e+01  4.4998196493178966e+01  4.5001482528641368e+01  4.4993998855699218e+01  4.5008986886261781e+01  4.4997798636577251e+01  4.5004841024338681e+01  4.4999240271729853e+01  4.4998573295947963e+01  4.4995600640255311e+01  4.4992803463754051e+01  4.5013565318414045e+01  4.4984416379492380e+01  4.5006249425415973e+01  4.4999497687613015e+01  4.4986155912111450e+01  4.4988408267365301e+01  4.5006861349201436e+01  4.4997230272333333e+01  4.4995845357760757e+01  4.4996884628192511e+01  4.5005393393935059e+01  4.5004868484420939e+01  4.5009226887013973e+01  4.5005771126083708e+01  4.4994553031423543e+01  4.5003261899321018e+01  4.5008521394120237e+01  4.4998420443006921e+01  4.4996354855061256e+01  4.5002409008443529e+01  4.5004424254610427e+01  4.4997933861266226e+01  4.4996535335837763e+01  4.5000116698448871e+01  4.5002551652114825e+01  4.5004653272254181e+01  4.5000345269031818e+01  4.5012241721542445e+01  4.4998955012792464e+01  4.4997033667203887e+01  4.5002926221028027e+01  4.5003040144803805e+01  4.5000136804873577e+01  4.5000350018050440e+01  4.5002344909662249e+01  4.5004245759353594e+01  4.5002787522696927e+01  4.5000724787177560e+01  4.4995103870481842e+01  4.4998161893854345e+01  4.4999937592028175e+01  4.5001486224251131e+01  4.5002505314899850e+01  4.4995988487193728e+01  4.5002928203878120e+01  4.5002493562318406e+01  4.5002424040317280e+01  4.5007719933768477e+01  4.5001053669426526e+01  4.5001290953902782e+01  4.4991762741297109e+01  4.4998251265752579e+01  4.4993464435742382e+01  4.4999133523290233e+01  4.4999890983837894e+01  4.5000062691171252e+01  4.5003526326375166e+01  4.4997388856225896e+01  4.4996503012824114e+01  4.4994261044554733e+01  4.4992584073532001e+01  4.5000982918859101e+01  4.4998132851015932e+01  4.5000638898240659e+01  4.4997844474638704e+01  4.5000533400485473e+01  4.5018420049494900e+01  4.4994674395398967e+01  4.4996390676955208e+01  4.5003192331837916e+01  4.4995652028012259e+01  4.5006250660805925e+01  4.4996089882118476e+01  4.5019400750512418e+01  4.4987417701582231e+01  4.4998197592422748e+01  4.5018649174676057e+01  4.4999933668084793e+01  4.4997212985787918e+01  4.4998912323995249e+01  4.5003393705239425e+01  4.5005843958724839e+01  4.4987648362572344e+01  4.5008451237610061e+01  4.5005657191789425e+01  4.4998928715706178e+01  4.4998795332901061e+01  4.5002845462370885e+01  4.4995661897921956e+01  4.4987845371148957e+01  4.5000531328929213e+01  4.5004221040083735e+01  4.4994331203877877e+01  4.4993353923708639e+01  4.5007153708863349e+01  4.4997112124537331e+01  4.4997034284564236e+01  4.5009593192698389e+01  4.4997361322131674e+01  4.4999406433021228e+01  4.4998918197629202e+01  4.5000231417916666e+01  4.4999401485539671e+01  4.5015073984202822e+01  4.4997420134986484e+01  4.4995740453829676e+01  4.4997489221205541e+01  4.5001472786742397e+01  4.4993642691779613e+01  4.5005214560454277e+01  4.5000890087103805e+01  4.5003303315306546e+01  4.4995108588793379e+01  4.5003888822714863e+01  4.4995636383391918e+01  4.5002939292962580e+01  4.5005399394944085e+01  4.4999318540396146e+01  4.4997321118922699e+01  4.5002905461533302e+01  4.4997339178974229e+01  4.4997476903881726e+01  4.4995016271652595e+01  4.4996600159148407e+01  4.4998428031707775e+01  4.4994190080929521e+01  4.5011800879151238e+01  4.4980038600112877e+01  4.4992048108248127e+01  4.4990241363092466e+01  4.5019155272996727e+01  4.5000786330161823e+01  4.4993568967789884e+01  4.5007512366501665e+01  4.4994552880197283e+01  4.4995214863989595e+01  4.4998132240308607e+01  4.4998363886528075e+01  4.5004936281052004e+01  4.5002685558749214e+01  4.4996012728901675e+01  4.4981618395417222e+01  4.4971943841715799e+01  4.4967297244421971e+01  4.4989290047583324e+01  4.5049275240215771e+01  4.5001516477493745e+01  4.5005637134546774e+01  4.5002775892031664e+01  4.4992053361626859e+01  4.5013966415042269e+01  4.4997772402246873e+01  4.5010174355920981e+01  4.5002472799390347e+01  4.4998333086780541e+01  4.4973903246003644e+01  4.5011392729046520e+01  4.4973075208655686e+01  4.5011390984638631e+01  4.5005547086464567e+01  4.5018715819358320e+01  4.5029527080936113e+01  4.4993371132504869e+01  4.5007632688161429e+01  4.4992974060666413e+01  4.5066718959504527e+01  4.4998393511869821e+01  4.5007516803017062e+01  4.4951522144090873e+01  4.5002151901976013e+01  4.5079872253254088e+01  4.5006043680272455e+01  4.5030531884462185e+01  4.4976745788866147e+01  4.5003672147224208e+01  4.4974004828331914e+01  4.5017663618909566e+01  4.5037295671071590e+01  4.4999933309311530e+01  4.4971591972178935e+01  4.5012442770758675e+01  4.4997878881414699e+01  4.5003249349136446e+01  4.5000307648034180e+01  4.4999773191139546e+01  4.4999951930185411e+01  4.5000324070825748e+01  4.4999986786983470e+01  4.5002677999921481e+01  4.4999225777238493e+01  4.5002206170031286e+01  4.4999041361453990e+01  4.4999242652063124e+01  4.4999675999044939e+01  4.5002457783508312e+01  4.5000559607245499e+01  4.4996613282068914e+01  4.4998878748338015e+01  4.4997604677363455e+01  4.5001225687377122e+01  4.5002309042031044e+01  4.4997527211516029e+01  4.5004007806052662e+01  4.4997258959863494e+01  4.5004818729955112e+01  4.5003000549709178e+01  4.5006010738154949e+01  4.5000023980075866e+01  4.4996701462506159e+01  4.5001511049070714e+01  4.4995838038220832e+01  4.4996567891429528e+01  4.4998569532694276e+01  4.4999369844268017e+01  4.5002496428112288e+01  4.5000484952547161e+01  4.5001205795957901e+01  4.5003389937366187e+01  4.4997941963515835e+01  4.5001400907412446e+01  4.4998676799092046e+01  4.4998232800355069e+01  4.4997431346605197e+01  4.5003656998571344e+01  4.5002745657567516e+01  4.4996992916738435e+01  4.4987423219493678e+01  4.5002303079713414e+01  4.5006717751925649e+01  4.4997618409796182e+01  4.4995353825059681e+01  4.4995881282327197e+01  4.5003126047017297e+01  4.5002585319333690e+01  4.5007324557073126e+01  4.5006445634575300e+01  4.4997239850047556e+01  4.4996017993960024e+01  4.5005680615413560e+01  4.5001000803764974e+01  4.4999761304810008e+01  4.5000897782393018e+01  4.4997793257722194e+01  4.5000074520115383e+01  4.4999706253051876e+01  4.5000146787984818e+01  4.5001444148745968e+01  4.4999786959482307e+01  4.4999577807120666e+01  4.5000081405933194e+01  4.5000018928698054e+01  4.5000250768227062e+01  4.5000167651846667e+01  4.5000068082912826e+01  4.4999871711252062e+01  4.5000410256785962e+01  4.5000290717907241e+01  4.5000385706779383e+01  4.4999305307961599e+01  4.5000312867410415e+01  4.4998881341614158e+01  4.4994659639173854e+01  4.4999945436837905e+01  4.4999352622065352e+01  4.4996144409531546e+01  4.4999635421483482e+01  4.4994668078205642e+01  4.5000024351691337e+01  4.5001695502859256e+01  4.4998740591926634e+01  4.5002842139156485e+01  4.5004646085415828e+01  4.4999203479958432e+01  4.4999901250380823e+01  4.5003907520340633e+01  4.4994051121630420e+01  4.4994796871215826e+01  4.4999827818959268e+01  4.5000316381797489e+01  4.5027407632123712e+01  4.5002467494689263e+01  4.5004191117308700e+01  4.4972316571821104e+01  4.4996128985232595e+01  4.4995406178883805e+01  4.5001752649751140e+01  4.5003832230403383e+01  4.5012062757788058e+01  4.5011497099819032e+01  4.4996802111959887e+01  4.5004252189695201e+01  4.4990251836380757e+01  4.5007244321708235e+01  4.5014583885329337e+01  4.4999543371989724e+01  4.4997531749412040e+01  4.4997670807581457e+01  4.4999684442865956e+01  4.4999218429809829e+01  4.5000569502302710e+01  4.5001116291725083e+01  4.5001105021004150e+01  4.5000434686292067e+01  4.4998817930154765e+01  4.4999595429851425e+01  4.5000897872472223e+01  4.5000521850887964e+01  4.5001131888271118e+01  4.5000812546403225e+01  4.4998880212535020e+01  4.4999049852582289e+01  4.4999382437722417e+01  4.5001505736877824e+01  4.5007620916721663e+01  4.4988121494578465e+01  4.4995215874114074e+01  4.4996503916673419e+01  4.4999274946334523e+01  4.5001301602937069e+01  4.4995553211456006e+01  4.5020728918341774e+01  4.4998836683219821e+01  4.4998485653612065e+01  4.5003093864782656e+01  4.4994570157808923e+01  4.5001822659361622e+01  4.4994210161897108e+01  4.4998359664305859e+01  4.4996214978132258e+01  4.4999433893868222e+01  4.5003312677360434e+01  4.4997245045112457e+01  4.4991900126456393e+01  4.4997618623735534e+01  4.4995856319772003e+01  4.5009002492727440e+01  4.5000972765265587e+01  4.5000920597231811e+01  4.4998447231500606e+01  4.5000088358477150e+01  4.5002261217679212e+01  4.5000791414702256e+01  4.4997529070264640e+01  4.4999631029374925e+01  4.4999847003163580e+01  4.4996512894379130e+01  4.5010479645659842e+01  4.5004320580531967e+01  4.5000042325363616e+01  4.4996938631813300e+01  4.5005463075866608e+01  4.5002457695788088e+01  4.5005985229032802e+01  4.5002675305788955e+01  4.5002446482789871e+01  4.4996900846628300e+01  4.4993111866695735e+01  4.4999317355360439e+01  4.4996053844693343e+01  4.5001029172205257e+01  4.5003744445535318e+01  4.4995864726002402e+01  4.5001238553655980e+01  4.4999283239566971e+01  4.4998529268094586e+01  4.5000777116961608e+01  4.4999612284192771e+01  4.4998409969488705e+01  4.5001608179056817e+01  4.5000446620442432e+01  4.5000024603241371e+01  4.4999922551141061e+01  4.5000411129862592e+01  4.4999850397587593e+01  4.4999849629869779e+01  4.5001129225109814e+01  4.4999460137245428e+01  4.4999360939258167e+01  4.5000003888478609e+01  4.4995791363645488e+01  4.4997368161679738e+01  4.5011575298836327e+01  4.4997225644981562e+01  4.4981227717259721e+01  4.5012608676775422e+01  4.5003510498730407e+01  4.5001719779862952e+01  4.5003888613997731e+01  4.4999630859499554e+01  4.5000445472039317e+01  4.5000185664876305e+01  4.5001185906703398e+01  4.5000292697428669e+01  4.4999627689067601e+01  4.5001357797482051e+01  4.4998941110469850e+01  4.4999394413215370e+01  4.4999561265125685e+01  4.5000326974560672e+01  4.4998832890371119e+01  4.4993704662407225e+01  4.5003361720951297e+01  4.4997635498861150e+01  4.5000250777155735e+01  4.4998657059640813e+01  4.4998622184422381e+01  4.4990693732239166e+01  4.5001348166094978e+01  4.5005542421864021e+01  4.4996591211051069e+01  4.5007564319949232e+01  4.4999667796823488e+01  4.4993622420416067e+01  4.5000648491044068e+01  4.4999351815994558e+01  4.5000022926298271e+01  4.5001591582555861e+01  4.4996727882537051e+01  4.4999987005677262e+01  4.5000405107829209e+01  4.5000198430706192e+01  4.5000136033996149e+01  4.4999878728861454e+01  4.5000160876035316e+01  4.5000223925366157e+01  4.4999687018015400e+01  4.4999182387456159e+01  4.4999605549361192e+01  4.5000165663676093e+01  4.5000064833960295e+01  4.5000292479194194e+01  4.4999909499010968e+01  4.5000146445978160e+01  4.5000084178404933e+01  4.4999594981635838e+01  4.5000019460932833e+01  4.4999773933679016e+01  4.4999684305490568e+01  4.4999798431029561e+01  4.4999404562526699e+01  4.4995665171661734e+01  4.4998824157970148e+01  4.5000208514032508e+01  4.5000075708677834e+01  4.4999460183808395e+01  4.5001765011515509e+01  4.5007283983343996e+01  4.4985071173895889e+01  4.4987183687466491e+01  4.4998132860705702e+01  4.5013076674353293e+01  4.4999359440138655e+01  4.4988657624965178e+01  4.5003393866507729e+01  4.5006996073019025e+01  4.4999302580810841e+01  4.5001135309309994e+01  4.4998118223322606e+01  4.4998534581259456e+01  4.5000876799836348e+01  4.5001139514673227e+01  4.4999399627306367e+01  4.4998550975603933e+01  4.4999652539300513e+01  4.5000176584624015e+01  4.5005561752468779e+01  4.4991315932104705e+01  4.4991335542659172e+01  4.4990824100815715e+01  4.5003910488858438e+01  4.5001858100241108e+01  4.5000406837982297e+01  4.4995346413437808e+01  4.5000511139284889e+01  4.4997877744416556e+01  4.5005152083040684e+01  4.5000755922072941e+01  4.5002284772615909e+01  4.5000913847327382e+01  4.4999250430164132e+01  4.4995789677817349e+01  4.5013811232014774e+01  4.5009015976123443e+01  4.4998349588783967e+01  4.5003172320403834e+01  4.4996934995620776e+01  4.5001451265096748e+01  4.4996382954897506e+01  4.4999518737702466e+01  4.5001882044777233e+01  4.5001768422832214e+01  4.5004574270505522e+01  4.4998179747042329e+01  4.5002217704291702e+01  4.4999678276044669e+01  4.5000758444054718e+01  4.5000512311696603e+01  4.4999588529379302e+01  4.5004697988522999e+01  4.5000696013340722e+01  4.4991862410032894e+01  4.5008574578502973e+01  4.5024189439170371e+01  4.4980792619558905e+01  4.5002542508324140e+01  4.4978582892760912e+01  4.5000870019690851e+01  4.4983407329524837e+01  4.5010473105145898e+01  4.4996465899975298e+01  4.4999771914646018e+01  4.4995386226864625e+01  4.4999531332225722e+01  4.5001173252135274e+01  4.4996513200398340e+01  4.4985916505012206e+01  4.4997977266949043e+01  4.4994972780758594e+01  4.5000511684490839e+01  4.5003402331676050e+01  4.5000255577159443e+01  4.4998154099920626e+01  4.5001285909046871e+01  4.4998962831631921e+01  4.5003882416009482e+01  4.4996654580195575e+01  4.5002915971359322e+01  4.5002240883382811e+01  4.5003123661843958e+01  4.5003841997148783e+01  4.4997466328292113e+01  4.5001782225712937e+01  4.5002101536614681e+01  4.4996100521969701e+01  4.5002153994813234e+01  4.4997526147738391e+01  4.4998413470409659e+01  4.4997923858691344e+01  4.5003207594242184e+01  4.4999762867859950e+01  4.4999482090165479e+01  4.4999691053161463e+01  4.5000153244280867e+01  4.4999994469676629e+01  4.5000211323486496e+01  4.5000083311925138e+01  4.4999878970836143e+01  4.4999532460285678e+01  4.4999248242784411e+01  4.5000758133093626e+01  4.4995798364152506e+01  4.5003464621093848e+01  4.4998255050152991e+01  4.4994498556113541e+01  4.5003670195681018e+01  4.4997415827226142e+01  4.5000921114165024e+01  4.5008556350108272e+01  4.5004971488266413e+01  4.5000743058662486e+01  4.5009583733666226e+01  4.4983497516070926e+01  4.4999900679960334e+01  4.5010352122594441e+01  4.5001135746697656e+01  4.4998885467599059e+01  4.4999483505525504e+01  4.5008472277969240e+01  4.4999760606675288e+01  4.4997166245491094e+01  4.4996491700135010e+01  4.4998069232812853e+01  4.4998405501111023e+01  4.5000497127375155e+01  4.4999007478097987e+01  4.4995823564569875e+01  4.5002611046832932e+01  4.5009204726752820e+01  4.5006400991943835e+01  4.4996245625061569e+01  4.4998282408555006e+01  4.4999469058179336e+01  4.5001539825583670e+01  4.5005467442355723e+01  4.5003303381088365e+01  4.5004776107200087e+01  4.5005940077150825e+01  4.4999438112098460e+01  4.5008044201826230e+01  4.5000859264459606e+01  4.5001948317247184e+01  4.5000066928542267e+01  4.5001373989827265e+01  4.4999005980526150e+01  4.4998265153282865e+01  4.4990028293142792e+01  4.5007625118223622e+01  4.5009797290448546e+01  4.5053927365822375e+01  4.5074486831503513e+01  4.5015799391935275e+01  4.4986870465278940e+01  4.4967303814777587e+01  4.5008232228613267e+01  4.4994871904517673e+01  4.5015132681912888e+01  4.5002682056870533e+01  4.5004103388471869e+01  4.4996204127383564e+01  4.4996535975076085e+01  4.5000108303577321e+01  4.5003863408219253e+01  4.4999802571264702e+01  4.5001456429591926e+01  4.4999921468287035e+01  4.5001171849279046e+01  4.4999706398766456e+01  4.4999440916436413e+01  4.4998258916073631e+01  4.5001208799630582e+01  4.5000967888028640e+01  4.5000681851506940e+01  4.4997952697962390e+01  4.4998752644869036e+01  4.5000424560638905e+01  4.5000647382848733e+01  4.4998728162501898e+01  4.4996780256912324e+01  4.5004375592188048e+01  4.5000928736764664e+01  4.4995378246763735e+01  4.5008276225812764e+01  4.5001178525846171e+01  4.5010742112476940e+01  4.4998451462250486e+01  4.4997698349186450e+01  4.5002316868930549e+01  4.4999781146289877e+01  4.5001329198126029e+01  4.4999173189222482e+01  4.5002559218849129e+01  4.4995526863551220e+01  4.4999614948966958e+01  4.4992054521003496e+01  4.5000165114823929e+01  4.4999866009084819e+01  4.4992413037449545e+01  4.5008980469436068e+01  4.4995843136257186e+01  4.4995619940284463e+01  4.5011481492256024e+01  4.4995868998419439e+01  4.4999980780908274e+01  4.5000016422613513e+01  4.5002994414407333e+01  4.5004756396276598e+01  4.4998580728903143e+01  4.4999634888132597e+01  4.5000269613953527e+01  4.4999512164642489e+01  4.5000330077982603e+01  4.4995206879576784e+01  4.5007881953252721e+01  4.4996830839515042e+01  4.5009886495211752e+01  4.5003243684166371e+01  4.4996505885929103e+01  4.4999031764898909e+01  4.4999174601770250e+01  4.4997835993342903e+01  4.5000254938441635e+01  4.4996160444096525e+01  4.5006040136440326e+01  4.4999111488952380e+01  4.4998524114852287e+01  4.4999999557273746e+01  4.4998843018832218e+01  4.4998881814398366e+01  4.5000248916201990e+01  4.4999890439267837e+01  4.4999985830355094e+01  4.5000242537175254e+01  4.4997719650909758e+01  4.5000963862498551e+01  4.4998780047958725e+01  4.5000500576163724e+01  4.4996319501762976e+01  4.5002648773014066e+01  4.4996163300582616e+01  4.4997748562511454e+01  4.5005929139342143e+01  4.5000029117798803e+01  4.4999596907317340e+01  4.4998231382599627e+01  4.5015253097355064e+01  4.4988086207109660e+01  4.5006938660095102e+01  4.5006673299237441e+01  4.5005470974482726e+01  4.5001440960477815e+01  4.5000018606762502e+01  4.4963939439940575e+01  4.5021507642196518e+01  4.5027881580803573e+01  4.5010838975126823e+01  4.5013981606011455e+01  4.5001261015616748e+01  4.5012985345834721e+01  4.5001582141901629e+01  4.4987716903372871e+01  4.5001656792427603e+01  4.4982385814126943e+01  4.5002633329785681e+01  4.5003113392854807e+01  4.5001156624823508e+01  4.4999237360363445e+01  4.4997496340621815e+01  4.5000397905742503e+01  4.4999188106807331e+01  4.5003723776761213e+01  4.5006267111891447e+01  4.4999451204136733e+01  4.4997808883114459e+01  4.5026672927708056e+01  4.4987300404368916e+01  4.4983003602247678e+01  4.5001711346268294e+01  4.5003497898919598e+01  4.4998192398322239e+01  4.4991435116997749e+01  4.5001349128454493e+01  4.4994204381356958e+01  4.5006974169515267e+01  4.5000505372484191e+01  4.4998038164300247e+01  4.5000091830177332e+01  4.4999812618635062e+01  4.4999977622696058e+01  4.5000189921375757e+01  4.5000398270911141e+01  4.4996988642469589e+01  4.4998375103965898e+01  4.4999535017309434e+01  4.4999037119825537e+01  4.4999401291642180e+01  4.5007961268403562e+01  4.5004434493894919e+01  4.4998076762710056e+01  4.5000315480057246e+01  4.5004737967642079e+01  4.5002917163371357e+01  4.5005276637263982e+01  4.5000691160618558e+01  4.5000037526657749e+01  4.4995813330885838e+01  4.4999017955554379e+01  4.4994983345969018e+01  4.4999761934514872e+01  4.4997803924445151e+01  4.4998468074565189e+01  4.4994857546703173e+01  4.4997252687024655e+01  4.4998212644762319e+01  4.4999588649865572e+01  4.5013045569588158e+01  4.4988083772746819e+01  4.5009910364298548e+01  4.5012596841380606e+01  4.4981468960601511e+01  4.4992100616281803e+01  4.5003626718910354e+01  4.4998415802693700e+01  4.4997700266529527e+01  4.4998821840626285e+01  4.5000983404811770e+01  4.4999412406199369e+01  4.5000334506473351e+01  4.5000337930883134e+01  4.4999806884047402e+01  4.4998901748656820e+01  4.500400485015787