<?xml version="1.0"?>
<VTKFile type="UnstructuredGrid"  version="0.1"  >
<UnstructuredGrid>
<Piece  NumberOfPoints="6941" NumberOfCells="32044">
<Points>
<DataArray  type="Float64"  NumberOfComponents="3"  format="ascii">35.72824859619141 3.347516059875488 10.73729991912842  34.5903672576871 3.191334292577545 10.43564967662728  35.3404318142391 3.214414428478016 10.15183964962546  35.14063550429587 3.795051077398827 10.57941109303094  34.9781840396394 3.324435923975018 11.02110994613024  34.55302241240032 4.242586094922165 10.42152226693347  34.39057094774386 3.771970941498356 10.86322112003277  34.75281872234356 3.661949446001354 9.993950823527985  34.2281194830874 3.301355788074547 11.30491997313206  34.9526150322868 3.081312797080543 9.566379380122504  33.55965528371198 3.107285035033978 8.964189219908727  32.83827000786994 4.18384940107912 9.17264149791191  33.29245440762971 4.117338588034744 9.761141684494477  33.54899832753615 3.922556450748544 9.064166204351395  32.84892696404577 3.368577985364555 9.072664513469242  33.30311136380553 3.302067172320179 9.66116470005181  33.04656744389909 3.496849309606379 10.35814018019489  32.59238304413932 3.563360122650755 9.769639993612326  32.13819864437956 3.629870935695131 9.181139807029759  33.53834137136033 4.737827866463109 9.164143188794061  34.59391021728516 2.579843044281006 11.87664031982422  34.42190908278629 1.967948106893897 11.68300372114904  33.98090536496117 2.356210392211448 11.7070262742225  34.43828582763672 2.236611008644104 12.09791994094849  34.28266143798828 1.893378973007202 12.31919956207275  34.26628469313786 1.624716071256995 11.90428334227331  33.82528097531273 2.012978356574546 11.92830589534677  33.36790051263718 2.13257774014189 11.53741222862079  33.8089042304623 1.744315454824339 11.51338967554733  34.24990794828743 1.356053169506788 11.48936712247387  32.54447708843018 3.49776567074225 11.65195191453761  33.05917057611791 3.48661254767841 11.94721588202043  32.6819549662041 2.918718915817434 12.13895815575416  32.95618880053368 2.81517170544207 11.5946820715792  33.4708822882214 2.80401858237823 11.88994603906202  33.0936666783076 2.236124950517254 12.08168831279576  32.81943284397802 2.339672160892619 12.62596439697072  33.19664845389183 2.907565792753594 12.43422212323698  33.57386406380563 3.47545942461457 12.24247984950325  35.46574843411215 3.551577399974598 9.734159386106175  35.84087371826172 3.161189079284668 10.31308031082153  35.85356521606445 3.68467903137207 10.31961965560913  35.9788818359375 4.021842002868652 9.901939392089844  35.96619033813477 3.49835205078125 9.895400047302246  35.95349884033203 2.974862098693848 9.888860702514648  35.45305693630942 3.028087447887196 9.727620041318577  32.27888107299805 6.130508899688721 10.5103702545166  33.03983901362877 5.744138670691257 10.14225997947189  33.05172942500572 5.761542273291354 10.51439037345383  32.54997466426354 5.660234165915256 10.3712352754924  32.76874542236328 6.214413404464722 10.28139495849609  32.78063583374023 6.231817007064819 10.65352535247803  33.28239059448242 6.333125114440918 10.79668045043945  33.27050018310547 6.31572151184082 10.42455005645752  33.25860977172852 6.298317909240723 10.05241966247559  32.82106825552903 5.189959432141792 10.2321002964682  31.76127052307129 0.09558500349521637 12.72681999206543  32.19647970146597 0.5911197266185358 12.40469161290621  32.00726985931396 0.09558500349521637 12.18244504928589  32.39943981170654 0.09558500349521637 12.64055013656616  33.0376091003418 0.09558500349521637 12.55428028106689  32.83464899010122 0.5911197266185358 12.31842175740694  32.64543914794922 0.09558500349521637 12.09617519378662  32.25326919555664 0.09558500349521637 11.63807010650635  32.44247903770864 0.5911197266185358 11.86031667012666  32.63168887986065 1.086654449741855 12.08256323374698  33.22505987191465 3.82228431044763 10.80611572767157  32.609904961732 4.057808887550602 10.93916659757188  32.98797720212094 4.281308359529485 10.72413208724167  32.9293869603428 5.065767409452591 11.09012399428845  32.78839738974756 4.383243888391854 11.38714214504856  33.1664696301365 4.606743360370736 11.17210763471835  32.55131471995385 4.842267937473709 11.30515850461866  32.17324247956491 4.618768465494826 11.52019301494887  33.4035522999302 4.147719311288881 11.25409127514826  33.69515568537786 5.964461912622044 10.56823945819296  33.46449451590117 5.39287907147248 10.28594938120733  33.68326527400091 5.947058310021946 10.19610906421102  34.1079207762733 5.595798710803169 10.33979846594646  34.06145095825195 2.737632989883423 12.5263500213623  33.81765751102879 3.106546207248996 12.38441493543278  33.44044190111499 2.538652575388021 12.57615720916651  33.71467573544457 2.435105365012657 12.03188112499155  33.35372924804688 1.200886964797974 8.957130432128906  33.60451661738372 1.127726327537933 9.778351104193801  33.57397683926175 0.7551592636496771 9.583057759346412  33.25087198086331 1.028543238678669 9.458632824959205  33.70737388456729 1.300070053657238 9.276848711363503  33.67683410644531 0.9275029897689819 9.081555366516113  33.99993896484375 0.6541190147399902 9.20598030090332  34.03047874296573 1.026686078628246 9.40127364575071  34.0610185210877 1.399253142516503 9.596566990598099  33.14801471367974 0.856199512559364 9.960135217789503  31.85147288237222 1.900488553241385 11.40659074893631  32.30520241583176 2.443668326287813 10.49019437084697  32.58295690861925 2.641276271128199 11.18087551427281  31.82474309348678 2.525231677677946 11.11546477443057  32.33193220471721 1.818925201851251 10.78132034535271  32.6096866975047 2.016533146691637 11.47200148877855  33.09014601984968 1.934969795301504 10.84673108519495  32.81239152706218 1.737361850461118 10.1560499417691  31.79801330460133 3.149974802114508 10.82433879992483  31.9218807220459 0.09558500349521637 10.81414031982422  32.30271911621094 0.4362840130925179 10.27594137191772  32.16593765035225 0.5776682968908918 10.83065711025286  32.3159646987915 0.09558500349521637 10.74065017700195  31.90863513946533 0.4362840130925179 10.34943151473999  31.89538955688477 0.7769830226898193 9.884722709655762  32.15269206777168 0.9183673064881933 10.36594830516863  32.71004867553711 0.09558500349521637 10.66716003417969  32.56002162709785 0.5776682968908918 10.75716696743059  32.4099945786586 1.059751590286567 10.8471739006815  34.1939697265625 0.09558500349521637 9.935576438903809  33.67099222012112 0.4758922580272902 9.947855828346656  34.1274941238251 0.7474190730058595 9.766071714750954  34.15753796121657 0.5448182251780157 10.31342694867226  34.12110619587064 0.994051446860815 10.69127745844071  33.63456045477519 0.9251254797100895 10.32570633811511  34.09106235847917 1.196652294688659 10.1439222245194  31.83727073669434 5.94587516784668 9.903904914855957  32.37369402131973 5.2147384074167 9.672244566106407  32.19031939367729 5.682637776886576 9.356498353876946  31.88179526190238 5.592696275269144 9.508146875300286  32.14579486846924 6.035816669464111 9.752256393432617  32.32916949611168 5.567917299994235 10.06800260566208  32.45431900024414 6.125758171081543 9.600607872009277  32.63769362788658 5.657858801611667 9.916354084238739  31.92631978711043 5.239517382691608 9.112388835744614  31.96810597449045 3.38992286890482 10.0027393034773  32.42229037425021 3.323412055860444 10.59123949005986  32.46170817096657 2.845585118099723 10.16857392873752  32.0075237712068 2.912095931144099 9.580073742154955  31.87684889803404 2.194320926593066 9.979007677280149  31.83743110131768 2.672147864353787 10.40167323860249  33.97089004516602 2.167548894882202 12.96088027954102  33.35709672362253 1.635589562632029 12.89139969070179  33.6185035692102 1.626968791602444 13.20821365372625  33.54778289660278 2.027730217097591 13.14155372635809  33.78020387218577 1.77540824041664 12.71072624388472  34.04161071777344 1.766787469387054 13.02754020690918  34.11233139038086 1.366026043891907 13.09420013427734  33.85092454479319 1.374646814921492 12.77738617125288  33.58951769920552 1.383267585951077 12.46057220822842  33.12467574803954 1.887911539312981 13.32222717317516  34.37208836363668 2.312411648835415 10.25565904157834  33.99959123809295 3.289081053343461 9.9622597801587  33.70932790376789 2.904630479220897 10.30689961088661  34.4625553880185 3.27749887187879 10.3385906542559  34.66235169796174 2.69686222295798 9.911019210850419  33.79979492814971 3.869717702264272 10.38983122356418  31.76463029767304 5.584064254514181 12.36560976557115  31.99454251121734 5.65517969728238 11.7728219725428  32.41377105431514 5.604199082005449 12.21124515288482  32.00156057854558 6.072814192922107 12.17360148280144  32.23849085941812 6.561564131330033 11.98159320003174  32.23147279208987 6.143929635690306 11.58081368977309  32.65070133518768 6.092949020413375 12.01923687011511  33.06291181095724 5.624333909496717 12.05688054019848  32.64368326785943 5.675314524773648 11.61845735985647  32.22445472476163 5.726295140050579 11.18003417951445  32.11486831246755 1.668441391549121 12.4322596239766  32.24158088111643 1.49357150149162 11.74457699134165  32.33545286317512 2.120080357067001 12.01627757295352  31.63088833166465 1.448849587723504 11.8225727999594  31.41030378095708 0.9972106222056237 12.23855485098248  32.02099633040886 1.041932535973739 12.16055904236473  32.72556086191933 1.713163305317237 12.35426381535885  31.76192821833308 6.59365406832867 12.64337153747896  32.29008070149084 6.099300376758466 12.84262423713281  31.52499793746054 6.104904129920744 12.83537982024867  31.28536557724804 6.625744005327307 13.30514987492618  33.08306038755453 1.469124407629546 9.556590186949006  33.43670502407494 1.56830749648881 9.876308466183602  32.98020312037096 1.296780681510241 10.0580925797793  32.67562834610965 3.152440259633293 12.81183899757335  33.21595274138139 3.453222188754244 13.1610219640355  33.35975723924975 2.64045409001357 12.97514736343287  33.39015332532107 0.437893319728284 12.14213946855528  33.54678535461426 0.09558
[...]
<PointData  Scalars="p_CO2"> 
<DataArray  type="Float64"  Name="p_CO2"  format="ascii">4.4994055026695918e+01  4.5015190353255022e+01  4.4990385185349453e+01  4.4970488255619152e+01  4.4981914496769171e+01  4.5016719971011483e+01  4.5003602501452477e+01  4.5007687136361106e+01  4.5003683224140048e+01  4.4994788996636800e+01  4.5001741106311691e+01  4.5003891711145407e+01  4.5002856968687958e+01  4.5003860828267797e+01  4.4997390325570933e+01  4.5004367747181703e+01  4.5003037150571316e+01  4.4998878476483739e+01  4.4999356394975372e+01  4.5000645121863926e+01  4.5011967058281854e+01  4.4999013760229602e+01  4.4996711199607965e+01  4.4992790732390226e+01  4.5004508253111219e+01  4.5001609448105206e+01  4.5000713315935187e+01  4.5001216288632122e+01  4.4998456035525798e+01  4.5000091021351821e+01  4.4998472146006570e+01  4.5004852177590159e+01  4.4992413157972983e+01  4.4993823327996751e+01  4.5009407004913804e+01  4.4997065227468120e+01  4.4999031778328437e+01  4.4997336602950618e+01  4.4998371264974374e+01  4.4998952820366995e+01  4.4989662135172743e+01  4.4974025411976513e+01  4.4999552254298067e+01  4.4990152280102087e+01  4.4980635539806343e+01  4.4999900964806145e+01  4.4987904850247617e+01  4.4982564935626563e+01  4.4994999390684036e+01  4.5018957571918186e+01  4.4955467041516087e+01  4.4995128052269507e+01  4.5003964330803441e+01  4.5022918745210454e+01  4.4998967894641154e+01  4.5000526405018867e+01  4.5000999943756014e+01  4.5000079630206614e+01  4.5000016855836719e+01  4.4997298088974709e+01  4.5004997483175593e+01  4.5002031353393470e+01  4.5003701832960687e+01  4.4998791163631779e+01  4.4998780982466123e+01  4.5000444468712445e+01  4.5001790450222813e+01  4.5001357791854154e+01  4.5001771626835883e+01  4.5002652176414550e+01  4.5000254062291056e+01  4.5001331355225702e+01  4.4999469273872151e+01  4.5002753716666447e+01  4.5000824900676072e+01  4.5002920477893959e+01  4.4999310401440923e+01  4.4992677387035677e+01  4.5005269754386291e+01  4.5012289528756909e+01  4.4993401442637335e+01  4.4996112464366362e+01  4.5003915645393327e+01  4.5000748154569180e+01  4.4998789985406198e+01  4.4997694025201710e+01  4.4998315348714293e+01  4.4997129944836743e+01  4.4997602204489503e+01  4.4991362112457097e+01  4.5000001357881466e+01  4.5001164377662711e+01  4.4999002797694509e+01  4.4998898617035152e+01  4.5001126456335207e+01  4.5003196144208509e+01  4.5000253325551654e+01  4.4999712608949423e+01  4.4997900301016401e+01  4.5000561621331080e+01  4.4999018905885734e+01  4.4999493247010335e+01  4.4989665337947905e+01  4.4992478243571391e+01  4.4995273869772340e+01  4.5001051452661478e+01  4.5019949399107787e+01  4.5002395846713725e+01  4.5006348738049525e+01  4.5004859468192883e+01  4.4994649187467289e+01  4.5001591653917174e+01  4.5005166209513625e+01  4.4998913485269028e+01  4.4999840048036575e+01  4.5001109019552480e+01  4.5001130824165926e+01  4.5001675006147693e+01  4.4999922048294849e+01  4.5003502857638779e+01  4.5003547896256116e+01  4.5013184171320432e+01  4.5000977895997956e+01  4.4940467411607536e+01  4.5011873122359702e+01  4.4993594359881591e+01  4.5002115861129660e+01  4.5002883692364435e+01  4.5003469338724663e+01  4.4999652109557807e+01  4.4996930772132053e+01  4.5001299860539874e+01  4.4998976504432591e+01  4.4998824095655671e+01  4.5012530109931305e+01  4.5001754593627822e+01  4.4997175865060314e+01  4.4994916755543493e+01  4.4995628950692748e+01  4.5003229444378682e+01  4.5004427428646189e+01  4.4999636419069972e+01  4.5000436060295876e+01  4.4996793164532761e+01  4.4999402948060933e+01  4.4989880298411499e+01  4.4995365005163428e+01  4.5000797522226208e+01  4.4999248725604581e+01  4.5003181903680229e+01  4.4999152068386294e+01  4.4999986490897825e+01  4.5000598864806797e+01  4.4998410761062260e+01  4.4997631532731340e+01  4.4997777352543473e+01  4.4995191695196738e+01  4.5004504043417576e+01  4.4995547472198091e+01  4.5001068800267383e+01  4.4997592292895973e+01  4.5001085180677194e+01  4.5002763240699068e+01  4.5001473753779415e+01  4.5000762399769521e+01  4.4998424911896386e+01  4.4999482348549542e+01  4.4998063303513106e+01  4.5004691633133987e+01  4.5000649120255368e+01  4.4999167375267412e+01  4.4998933290222240e+01  4.4998844294719319e+01  4.5001694603886413e+01  4.4997076346545512e+01  4.4994553094990479e+01  4.5005416827607206e+01  4.5004786537581481e+01  4.5040372286643517e+01  4.4993252948554314e+01  4.4997705247171481e+01  4.4999481280642534e+01  4.4999733105078825e+01  4.5003693202782223e+01  4.5000926137228788e+01  4.4999321445806615e+01  4.5000969187616526e+01  4.4998666829576152e+01  4.5000511990859877e+01  4.4998647086807885e+01  4.5001196206090242e+01  4.4996963464736261e+01  4.4999524652945297e+01  4.4998710853117906e+01  4.4999564905511640e+01  4.4996959447635049e+01  4.5000488289914166e+01  4.5000214468373677e+01  4.4999397101250736e+01  4.5000084078899043e+01  4.5002207031138710e+01  4.4996917863515804e+01  4.5000569177089154e+01  4.5001001279298045e+01  4.4995626262243526e+01  4.5002175985440196e+01  4.4998670383967422e+01  4.5005876340711758e+01  4.4986917931840516e+01  4.5002663965795342e+01  4.4998975768584870e+01  4.5001504771840658e+01  4.4995547018855881e+01  4.4996609023041614e+01  4.4995447340666360e+01  4.5004275178136304e+01  4.4994039068869753e+01  4.4998820698813041e+01  4.5004953359000474e+01  4.5001141442399557e+01  4.4998753622137308e+01  4.5000150146164856e+01  4.4997058301459674e+01  4.4994270364876684e+01  4.5001037317035639e+01  4.4997154377857306e+01  4.5002960498912266e+01  4.5000847948301470e+01  4.4999272475939676e+01  4.4999758081288306e+01  4.4989124269830128e+01  4.5003873842650599e+01  4.5000792055170585e+01  4.4999129674296718e+01  4.5001706735352698e+01  4.5003222952821233e+01  4.5004362310936266e+01  4.4998406657283795e+01  4.5000453087985768e+01  4.5005657735682291e+01  4.4965725039238698e+01  4.5000870128942196e+01  4.5003223768849672e+01  4.5000718634921292e+01  4.4997950428376939e+01  4.4998131806894463e+01  4.5002447759550073e+01  4.5003347992270641e+01  4.4995599662784436e+01  4.4997288265924496e+01  4.5002172659392016e+01  4.4999501480177379e+01  4.4995935683793867e+01  4.5000660038103149e+01  4.4999406901971874e+01  4.5005989742428305e+01  4.5003406768051505e+01  4.5001858200062301e+01  4.5004853225473347e+01  4.4997343357277764e+01  4.4999979012606254e+01  4.4999509751928223e+01  4.4999492566518178e+01  4.5000648314777941e+01  4.4993879721078990e+01  4.5004458016694969e+01  4.5006374372696186e+01  4.4998374113313808e+01  4.4998992684845604e+01  4.4996849057736902e+01  4.5003080975644693e+01  4.4999794231150318e+01  4.5003928295675180e+01  4.5001705448564756e+01  4.5011324605350069e+01  4.4989522375035591e+01  4.5000360329749284e+01  4.4979196848519251e+01  4.4996778288953969e+01  4.5025738242552670e+01  4.5000476086255205e+01  4.5022899319250733e+01  4.5005072287315159e+01  4.5033101692285328e+01  4.4998113896593090e+01  4.5002344839089069e+01  4.4993683031703391e+01  4.5000055363796314e+01  4.5005026132372478e+01  4.5007173858310871e+01  4.5000852888621985e+01  4.5001583254128413e+01  4.5000354484259553e+01  4.5000676153505189e+01  4.4989907721794992e+01  4.5002782736943942e+01  4.5005294442258020e+01  4.5010727312750475e+01  4.4996777035675819e+01  4.5006523938260848e+01  4.5023469096971134e+01  4.4975151804573287e+01  4.4996932315956577e+01  4.5000854965609292e+01  4.4998563905655629e+01  4.4998557970820926e+01  4.4998417207466552e+01  4.5001811307582479e+01  4.4997924895273449e+01  4.4998736414761389e+01  4.5003211705851157e+01  4.5000756466723772e+01  4.5004589730746410e+01  4.5004164806633426e+01  4.5002382208638636e+01  4.5011755181135975e+01  4.4995643638264298e+01  4.4995248569450439e+01  4.4997461948206393e+01  4.4999638002309425e+01  4.5005926874214438e+01  4.4990619752969771e+01  4.4992118163542145e+01  4.5000096274297157e+01  4.4986764299594711e+01  4.4998711314012326e+01  4.4999879137455565e+01  4.5006193941472119e+01  4.4991801065618340e+01  4.4998471670239276e+01  4.5005694079032708e+01  4.4998048393381559e+01  4.5001194502060812e+01  4.4998428721095138e+01  4.4998682583757734e+01  4.5001905246564831e+01  4.4996719505086524e+01  4.5004731681749455e+01  4.5001304793519274e+01  4.5009243511812024e+01  4.4999477253304747e+01  4.4999820215305689e+01  4.5009993644013555e+01  4.4999764519581838e+01  4.5008374501283484e+01  4.5000278633321038e+01  4.5000124732183856e+01  4.5004613932577165e+01  4.4992764237977681e+01  4.5002313502112166e+01  4.5005749998728625e+01  4.5010044610029787e+01  4.4986091633936702e+01  4.5007215464789603e+01  4.5001849475530527e+01  4.4996679644221373e+01  4.4995525755894363e+01  4.5001738745303236e+01  4.5000068443245127e+01  4.4997946890642567e+01  4.4999871156891750e+01  4.4996942279630474e+01  4.4991740474940919e+01  4.5002943512712385e+01  4.4999341300879756e+01  4.4997085868973528e+01  4.5001516250462089e+01  4.5002721680570538e+01  4.5000195830853862e+01  4.4997900490525666e+01  4.5003325578367289e+01  4.4993013793867284e+01  4.4990352695747092e+01  4.4993647035058650e+01  4.4997734862637891e+01  4.4995313097632767e+01  4.5004931620779210e+01  4.5001651408960292e+01  4.5002283280815256e+01  4.4983742819513239e+01  4.5000829112792104e+01  4.4996775884793998e+01  4.4998897531003415e+01  4.5002913903827405e+01  4.4998823230547323e+01  4.5007137213332157e+01  4.5002172122990295e+01  4.5003674920561643e+01  4.4997676255268317e+01  4.4997457833064104e+01  4.5002855619113923e+01  4.4986576610797357e+01  4.4998764584793406e+01  4.5003337865874009e+01  4.4997166878673525e+01  4.4995224091168559e+01  4.4997701451057068e+01  4.4994354056904591e+01  4.5001299910123890e+01  4.4998987656157503e+01  4.4996438138537776e+01  4.5000417933166922e+01  4.5001059808497494e+01  4.5010833081377612e+01  4.4998672561551949e+01  4.5005958079071114e+01  4.5002000963616460e+01  4.5000504178680821e+01  4.5001761989122620e+01  4.4997696687419349e+01  4.5000736068979393e+01  4.5001852089411813e+01  4.5002242400002636e+01  4.4999095453848390e+01  4.5000697968713567e+01  4.4997089458391642e+01  4.4996545610896362e+01  4.5000522026909501e+01  4.4998273805680867e+01  4.4997976117297362e+01  4.5004797108700359e+01  4.5001039380173012e+01  4.4999104694548386e+01  4.5001599848243877e+01  4.5000678119753900e+01  4.4999644512203567e+01  4.5008719788641706e+01  4.5011578624419492e+01  4.5005951654814410e+01  4.4990176277968196e+01  4.5005148721130006e+01  4.4996505379992925e+01  4.4995970479845788e+01  4.4998360053885563e+01  4.4999488339994933e+01  4.4999131563648312e+01  4.4999709704439759e+01  4.5000212038357986e+01  4.4999794050461567e+01  4.4997697444269789e+01  4.5009554373133213e+01  4.5002687827261028e+01  4.4997499445094363e+01  4.4997325014547307e+01  4.4992936165659415e+01  4.4995761660068467e+01  4.4999022099779033e+01  4.5000311823626262e+01  4.4996662246373290e+01  4.4995137238803061e+01  4.4994883926560298e+01  4.4999557481795549e+01  4.4996164587635569e+01  4.5001897769242873e+01  4.5007722225488664e+01  4.4994124989665551e+01  4.5002239204607527e+01  4.4990595068789297e+01  4.5006781192911582e+01  4.5002878874862674e+01  4.4997462896613200e+01  4.5008317794832180e+01  4.5002706282638798e+01  4.4998948536712703e+01  4.5000259490307279e+01  4.5019216130933522e+01  4.4972762028654849e+01  4.5003064742498708e+01  4.5003077608338181e+01  4.4979079910454075e+01  4.4996618620980826e+01  4.5005434994159536e+01  4.5001814594837043e+01  4.5002375051193418e+01  4.5009931722261214e+01  4.5028776179873418e+01  4.4963877107768973e+01  4.4997976576771450e+01  4.4999655814520459e+01  4.4998642159164184e+01  4.5004889170227244e+01  4.4994716742078772e+01  4.4998387633840800e+01  4.4999208831474760e+01  4.4979190380711799e+01  4.5000030940253644e+01  4.4997290583849981e+01  4.5005898279959908e+01  4.5001791078580872e+01  4.4999127930782194e+01  4.5000664168596515e+01  4.4999790341457839e+01  4.5000658586696808e+01  4.5023792680055266e+01  4.5001404666349110e+01  4.5001351349098961e+01  4.5000155752992093e+01  4.4999478024002819e+01  4.5002384049609688e+01  4.4995556064696835e+01  4.5002893801648447e+01  4.5001268473692754e+01  4.5006401476207387e+01  4.4999128828393999e+01  4.5000762876500289e+01  4.4997602412557548e+01  4.5000118298156323e+01  4.4999324496782776e+01  4.5002405258511821e+01  4.4995775408760153e+01  4.5000439351188462e+01  4.5004140680182481e+01  4.5015318126021711e+01  4.5000034826785260e+01  4.4998754167248620e+01  4.4998222437871817e+01  4.4990678646165385e+01  4.4989581707471800e+01  4.5000137115193638e+01  4.5006858799052459e+01  4.4997214001255678e+01  4.5000875886980658e+01  4.5008402629075505e+01  4.5009225861441735e+01  4.5001936246049738e+01  4.5010238830646571e+01  4.4983774725944734e+01  4.5001832761150148e+01  4.5009906508683578e+01  4.4997532294219127e+01  4.5000740740530880e+01  4.5003779932176734e+01  4.4997149173628010e+01  4.5007051634644206e+01  4.5002460693227526e+01  4.5000861892721325e+01  4.5004388916991275e+01  4.5004669168425643e+01  4.4996518101038461e+01  4.4998217382840757e+01  4.4990398424126646e+01  4.5027291705122799e+01  4.5012466653404530e+01  4.4995487592977881e+01  4.4991373229262038e+01  4.4995147373319845e+01  4.4999326005792099e+01  4.5004469518407078e+01  4.5000048826604925e+01  4.5001011595407817e+01  4.4996406413043260e+01  4.5029111942758043e+01  4.4978165135061353e+01  4.4944138639348644e+01  4.4977194396149216e+01  4.5063460224808821e+01  4.4967136570650766e+01  4.5003520218694248e+01  4.4998628631165928e+01  4.5000527674979011e+01  4.4999513826806002e+01  4.5007550169410955e+01  4.5007490241927130e+01  4.4975064097630366e+01  4.4994446299930509e+01  4.5016144403846006e+01  4.4994678069042251e+01  4.4999618959360973e+01  4.5005056125875242e+01  4.5005148319853610e+01  4.4998833330587949e+01  4.5002810217167138e+01  4.4994971737695863e+01  4.4994638055318354e+01  4.5003822269119638e+01  4.4998998878547560e+01  4.4993743238893941e+01  4.5002075037758281e+01  4.4994092001354048e+01  4.4989276057307933e+01  4.5004244947429683e+01  4.4999939895590899e+01  4.4999574598456419e+01  4.4997750051156672e+01  4.4990893369872893e+01  4.5000875991156803e+01  4.4984198256596081e+01  4.5002799480349914e+01  4.5001089037784553e+01  4.5000256384918046e+01  4.5000049886199328e+01  4.4999046975025557e+01  4.4996839185577635e+01  4.4996287436930224e+01  4.4994700974299889e+01  4.4998230985273267e+01  4.4997875686006473e+01  4.5004692776793568e+01  4.4997923615138070e+01  4.5009983248185542e+01  4.4999577132405292e+01  4.5002576516108199e+01  4.4987374020471826e+01  4.4995773605564104e+01  4.4990160757274936e+01  4.5001628647409042e+01  4.5002133550906258e+01  4.5001608083921575e+01  4.5004878623226375e+01  4.4990237679841599e+01  4.5000569093415272e+01  4.5006831935955191e+01  4.5008526573770141e+01  4.4999764955505938e+01  4.5000606999971339e+01  4.4998920750785473e+01  4.5037909997389107e+01  4.4969551022628224e+01  4.5043698382312492e+01  4.4997546720584822e+01  4.4999260670484276e+01  4.5003046901006066e+01  4.5000610166277660e+01  4.4995409218357445e+01  4.5002103212344508e+01  4.4982087024877586e+01  4.5003981456440783e+01  4.5008641445772312e+01  4.5004257939431398e+01  4.5001304180633760e+01  4.5000303237924555e+01  4.4995339645585247e+01  4.5002176678599994e+01  4.4998790338500939e+01  4.5001892717969469e+01  4.5010430920514942e+01  4.5021787081707018e+01  4.4950469471008226e+01  4.5034674448529621e+01  4.4996179949652579e+01  4.5001165305035187e+01  4.4980664608242414e+01  4.5001006087686832e+01  4.4995560438433714e+01  4.4995166914960706e+01  4.4995120189116285e+01  4.5001470736815868e+01  4.5003726702410127e+01  4.5001550808927348e+01  4.5004441344196358e+01  4.4998788191194564e+01  4.4984309018260269e+01  4.5002332389643527e+01  4.5006321952546159e+01  4.5002430115382417e+01  4.5000012592102436e+01  4.4999850602655179e+01  4.4997303622698617e+01  4.5005219680285983e+01  4.4997442147826995e+01  4.5001901685823924e+01  4.4996134363584211e+01  4.5005891893068089e+01  4.4998461600453140e+01  4.4997311005497515e+01  4.4987369150584861e+01  4.4998806631473180e+01  4.5000270144918360e+01  4.4961403297253895e+01  4.4997345074333943e+01  4.5021135839463568e+01  4.5002404649083317e+01  4.4996786761313047e+01  4.5006875665382516e+01  4.4946303388077190e+01  4.4998991160035189e+01  4.4993422026920541e+01  4.4998272312274985e+01  4.4998550807764957e+01  4.5001794607502688e+01  4.5002723813365627e+01  4.4999736622507861e+01  4.5001136600655343e+01  4.5002438260535413e+01  4.4997941803815671e+01  4.5000312747075654e+01  4.5000592547882889e+01  4.4997680240273922e+01  4.5000208755314496e+01  4.4998709509021545e+01  4.4998457326661615e+01  4.5000883035090389e+01  4.5001856526735445e+01  4.5000994167563952e+01  4.5000680036636005e+01  4.4994261527340775e+01  4.5009936333235423e+01  4.5000199838597702e+01  4.5004590278995771e+01  4.5000468483640326e+01  4.5002015762774732e+01  4.5007999267259279e+01  4.5003792096034445e+01  4.5005269341505652e+01  4.5004763922114115e+01  4.5009774278323626e+01  4.4997847576629518e+01  4.4999534355799661e+01  4.5000569469244752e+01  4.4994832653597179e+01  4.5007870028449865e+01  4.5004618282328025e+01  4.4995811615760637e+01  4.5000109860482937e+01  4.5001600419432101e+01  4.5000390479936961e+01  4.4996937421100242e+01  4.4998328578616885e+01  4.5001375015887575e+01  4.4996839550020098e+01  4.4999164215543296e+01  4.4999344175822678e+01  4.5000202215387255e+01  4.4998407588647666e+01  4.5000909569103058e+01  4.5002100827847492e+01  4.4994898761115465e+01  4.4998653489482862e+01  4.5001197293103331e+01  4.5000319698890486e+01  4.5002294071590249e+01  4.5007652962669226e+01  4.4996716983995952e+01  4.4995885950924958e+01  4.5001284403683279e+01  4.5002372954804088e+01  4.4996276547522896e+01  4.5003592808525795e+01  4.4997917737320762e+01  4.5003895143165195e+01  4.4999521233913661e+01  4.4999199946649547e+01  4.5003200224041478e+01  4.5001565734076713e+01  4.5001762585123657e+01  4.4998948473539549e+01  4.5002597031713584e+01  4.5009935181542282e+01  4.4994222303487938e+01  4.5009551974797063e+01  4.5001916472997365e+01  4.4997577296717324e+01  4.5003258087526433e+01  4.5004649222204165e+01  4.5000272207250489e+01  4.4994826548738899e+01  4.5008664925758225e+01  4.5000415389360285e+01  4.4997293675384050e+01  4.4999468263808161e+01  4.5000068502966975e+01  4.4996881316673125e+01  4.5002655406048859e+01  4.5000041722320368e+01  4.4999929481645246e+01  4.5003864987189424e+01  4.5005210960820314e+01  4.5010621279773865e+01  4.5009794046231782e+01  4.4993918912188178e+01  4.5007672868520601e+01  4.5000488030249166e+01  4.4999069650293777e+01  4.4997818567217138e+01  4.5011555241615198e+01  4.4993862052980276e+01  4.5002628995448866e+01  4.4994571759770203e+01  4.5005761904746784e+01  4.4983034901689606e+01  4.4999081065119967e+01  4.4993122803829209e+01  4.4997575107502129e+01  4.5002196079734723e+01  4.5009070080780681e+01  4.4993331343832828e+01  4.4997692819127259e+01  4.4980732942358564e+01  4.4982423481045302e+01  4.5008648119659277e+01  4.5004806396837310e+01  4.5001982906693932e+01  4.5004717202182398e+01  4.5004063607534178e+01  4.5001163436604500e+01  4.5011103547215427e+01  4.4996940910122539e+01  4.4994035823733867e+01  4.4998430637377822e+01  4.5000635378832669e+01  4.4994894503132542e+01  4.4999721603749762e+01  4.4983979182429714e+01  4.4992439067876539e+01  4.5003064984062767e+01  4.5003886989741076e+01  4.4993615764447320e+01  4.5006783386411982e+01  4.4995817750525148e+01  4.4997797851398410e+01  4.5004228323673708e+01  4.4999741756150833e+01  4.4999116367474912e+01  4.4999771898759164e+01  4.5002267339746162e+01  4.5001553809429396e+01  4.5002400669678480e+01  4.4997264725043664e+01  4.5000711154065762e+01  4.4997625115913763e+01  4.5005016245083262e+01  4.4997619471242913e+01  4.5001018439203293e+01  4.5002665244287563e+01  4.5001325440921256e+01  4.5000050860246944e+01  4.4998038588126178e+01  4.5001785862844869e+01  4.4998764601071201e+01  4.500391738517247