<?xml version="1.0"?>
<VTKFile type="UnstructuredGrid"  version="0.1"  >
<UnstructuredGrid>
<Piece  NumberOfPoints="6920" NumberOfCells="32058">
<Points>
<DataArray  type="Float64"  NumberOfComponents="3"  format="ascii">38.88113021850586 35.38135147094727 22.06880950927734  38.88750172562009 34.73355448198606 22.3124538865093  39.23108863830566 34.98581504821777 22.36330032348633  38.77924252457029 35.11309015703489 22.39038338327443  38.98938941955566 35.00181579589844 21.99088001251221  39.12282943725586 35.3653507232666 22.44122982025146  39.36452865600586 35.34934997558594 22.81365013122559  39.02094174332029 35.09708940935423 22.76280369424855  39.09764862060547 34.62228012084961 21.91295051574707  38.67735483063471 34.84482884312251 22.71195725727152  38.21146011352539 32.85988998413086 25.64524078369141  38.997790497984 33.11017686093586 25.81180930671881  38.771240234375 32.92330551147461 26.14447498321533  38.46484565734863 32.63723564147949 25.87420558929443  38.69139592095763 32.82410699094074 25.54153991279792  38.51785469055176 33.14595985412598 25.9155101776123  38.82424926757812 33.43202972412109 26.1857795715332  38.71823120117188 32.41458129882812 26.10317039489746  38.94478146478087 32.60145264828937 25.77050471840094  39.17133172838988 32.78832399775062 25.43783904190442  38.33961868286133 24.82773017883301 16.90376091003418  37.70130253112222 25.52858519463406 16.52922957021326  38.16396664158674 25.62447064183035 16.99017257130306  37.9546254258883 25.04411547322986 17.07457770125183  38.54895989855978 25.40808534743349 16.81935578008541  38.08629578809526 25.31219990023721 16.35841277899561  38.75830111425823 25.98844051603398 16.73495065013664  38.29563700379371 25.89255506883769 16.27400764904684  37.56963216891526 25.26050076762672 17.24539449246948  37.83297289332918 25.79666962164141 15.81306464795704  33.93841171264648 32.00180816650391 21.44054985046387  34.96962031121171 31.70495792484995 21.35768502045448  34.56009157891191 31.89734741307017 21.02231495667274  34.70867928356891 32.05425797564537 21.59860285087044  34.34794044494629 31.80941867828369 21.77591991424561  34.75746917724609 31.61702919006348 22.11128997802734  35.11820801586872 31.86186848742515 21.93397291465217  35.47894685449135 32.10670778478683 21.756655851277  35.33035914983434 31.94979722221163 21.18036795707931  35.18177144517734 31.79288665963643 20.6040800628816  34.64684158355733 32.83765111232317 21.02283286270424  35.73963339225408 32.51652886671918 21.07611710820538  35.32358075678707 32.88200053048735 20.709205613919  34.91430651436734 32.3152688859798 20.81345646279292  35.06289421902434 32.472179448555 21.38974435699062  35.59104568759707 32.35961830414399 20.49982921400768  36.0003199300168 32.92634994865154 20.39557836513376  34.60824607335081 34.94585524769541 21.92918466615566  34.28271577702453 35.16601796954732 21.31068635375821  34.36959479173616 35.40283003799559 21.76681315607672  34.82534041692509 35.18549822065553 21.2774348165179  35.04243476049936 35.42514119361567 20.62568496688014  34.49981012059881 35.40566094250745 20.65893650412045  34.58668913531044 35.64247301095571 21.11506330643896  34.1309435101215 35.85980482829576 21.60444164599777  34.04406449540988 35.6229927598475 21.14831484367927  33.95718548069826 35.38618069139923 20.69218804136077  32.20735168457031 34.93273162841797 21.06422996520996  32.79974539794954 35.35658208189329 20.64643795061578  32.9012164355597 35.11325044480149 20.93720000589921  32.5978774310431 34.89140100327317 20.79404013956621  32.51069068908691 35.15458106994629 21.20738983154297  32.40921965147675 35.3979127070381 20.91662777625953  32.81402969360352 35.37643051147461 21.35054969787598  32.71255865599336 35.61976214856642 21.05978764259254  32.98840317751588 34.85007037812836 20.52385031392245  32.61108761838319 35.86309378565823 20.7690255873091  37.24288940429688 29.48521041870117 19.38298988342285  36.83233999743288 28.94959615886913 19.92228240365697  36.69789762075808 29.37162102681359 20.21319836562445  36.70448800127575 29.36612043728161 19.60359755459671  37.23629902377921 29.49071100823315 19.9925906944506  37.37074140045401 29.06868614028869 19.70167473248311  37.22970864326154 29.49621159776513 20.60219150547834  37.36415101993634 29.07418672982067 20.31127554351086  37.49859339661114 28.65216186187621 20.02035958154338  36.16608659825462 29.24703045586205 19.82420522577056  33.13928985595703 24.84407043457031 16.46417999267578  33.8495873047012 25.11241451395027 16.25780832340681  33.58607434411483 24.91883297191744 15.84682741597519  33.32354294410688 25.17577167417395 16.49003573989011  33.66533421655135 24.78071327434663 16.23195257619248  33.24428307167036 25.31389137174475 16.10491057967283  33.06002998352051 24.98219013214111 16.0790548324585  32.98077011108398 25.12030982971191 15.69392967224121  34.19137857714567 24.71735611412296 15.99972515970918  33.50779603225673 25.50747291377759 16.51589148710444  36.06398010253906 32.02177047729492 17.47834014892578  35.86868824111752 32.21465744444543 16.94521627050489  35.5382433874852 31.73536565073913 17.07338228229852  35.26047194128644 32.27707921115847 17.50205356192282  34.45696378003381 32.53238794502201 17.52576697491986  35.0651800798649 32.46996617830897 16.96892968350193  34.73473522623257 31.99067438460268 17.09709569529556  35.01250667243134 31.44896082418335 16.66842441567126  35.34295152606367 31.92825261788964 16.54025840387764  35.67339637969599 32.40754441159594 16.41209239208401  33.36613082885742 27.0256404876709 20.88698959350586  33.72507524722691 26.62661335020884 20.83050809342345  33.58575390273198 26.51457682979023 20.48214818012033  33.65449571841832 27.09517833739145 20.75035272080382  33.43671035766602 26.55707550048828 20.96714496612549  33.51517437392339 26.98314181697285 20.4019928075007  33.50728988647461 26.08851051330566 21.04730033874512  33.66421791898935 26.9406431462748 19.91699602149553  33.80353926348428 27.0526796666934 20.26535593479866  33.94286060797922 27.164716187112 20.61371584810178  35.717529296875 23.97388076782227 22.82835960388184  36.42652698121714 24.07281443149533 22.64163339750628  36.36230895501216 24.47495967210867 22.74968610032212  35.96390119792287 24.0569657803595 22.510821731512  36.18015508016927 23.98972941895809 22.95917126987611  36.11593705396429 24.39187465957143 23.06722397269195  36.51434481105358 24.8098685513206 23.30608834150206  36.57856283725856 24.40772331070726 23.19803563868623  36.64278086346354 24.00557807009392 23.08998293587039  36.21027309897075 24.14005079289674 22.19328385914217  33.56139702508516 32.03024604787424 18.83180897893807  33.48729379808474 32.41779790034256 17.50197534099466  33.72924190442357 31.81805272122805 17.80113986573956  34.00918040255949 32.28131699644813 18.17878797692897  33.03951042061041 32.16672695176868 18.15499634300377  33.28145852694925 31.56698177265417 18.45416086774867  33.00152002881335 31.10371749743409 18.07651275655927  32.75957192247451 31.7034626765486 17.77734823181437  32.51762381613566 32.30320785566312 17.47818370706947  33.10284042358398 26.23628997802734 15.79393005371094  33.30531822792036 25.87188144590247 16.15491077040769  33.0743579864502 26.16729021072388 16.08960247039795  33.04948616027832 25.87990474700928 16.08594036102295  32.99613189697266 25.52351951599121 16.37795066833496  33.27683579078657 25.802881678599 16.4505831870947  33.2519639646147 25.5154962148844 16.4469210777197  33.02100372314453 25.81090497970581 16.38161277770996  33.04587554931641 26.09829044342041 16.38527488708496  37.73761290106012 29.09113691974454 21.46500110524001  38.16364122173594 28.37781192042482 21.62469846909752  38.33125515183549 28.95836235631105 21.36341144980377  38.26199370872887 28.57239929670204 21.9519842548286  37.56999897096058 28.5105864838583 21.72628812453375  38.7863745163976 28.05366167365954 22.4389674044172  38.85563595950423 28.43962473326855 21.85039459939237  38.09437977862932 27.99184886081581 22.21327127412235  37.40238504086104 27.93003604797208 21.9875751438275  38.92489740261085 28.82558779287756 21.26182179436754  32.02138137817383 37.27915954589844 20.96733093261719  32.59069061279297 37.2376594543457 21.28561019897461  32.36478042602539 37.26251411437988 21.42600059509277  32.37617111206055 37.58889389038086 21.11935520172119  32.23590087890625 36.92792510986328 21.13358592987061  32.45042037963867 36.57669067382812 21.29984092712402  32.57929992675781 36.91127967834473 21.59225559234619  32.73096084594727 37.89862823486328 21.2713794708252  32.71957015991211 37.5722484588623 21.57802486419678  32.70817947387695 37.24586868286133 21.88467025756836  33.85866757808903 29.11770983193308 20.0589219533643  34.17444453938524 29.67280763335513 19.38116253761959  33.85014592389376 29.72904485281014 19.88378681108328  34.36357257455379 29.41939314967101 19.78393607467786  33.66953954292048 29.3711243156172 19.65614841630603  34.03927395906231 29.47563036912602 20.28656034814156  34.21988034003559 29.83355090631896 20.5141987429188  34.54417895552707 29.77731368686395 20.01157446945511  33.48041150775193 29.62453879930132 19.25337487924775  34.86847757101855 29.72107646740895 19.50895019599142  32.82024002075195 30.38935089111328 15.43698978424072  33.37570371348334 30.25258118703517 15.2370588089827  33.32989873606635 30.61183125569972 15.37987392205032  33.28605929640714 30.19844327536968 14.81232360169687  32.86604499816895 30.03010082244873 15.2941746711731  32.91184997558594 29.67085075378418 15.15135955810547  33.33186427382413 29.83919320670513 14.66950848862924  33.75187857206232 30.00753565962607 14.18765741915302  33.79571801172153 30.42092363995611 14.75520773950647  33.83955745138074 30.83431162028615 15.32275805985992  33.73147964477539 28.80509948730469 21.29706001281738  34.12324127982319 28.54482722204005 21.22592599584616  33.97902488708496 28.70202445983887 21.49870491027832  33.81582069396973 28.25346946716309 21.3575849533081
[...]
<PointData  Scalars="p_O2"> 
<DataArray  type="Float64"  Name="p_O2"  format="ascii">1.0004305795583252e+02  1.0015821565969762e+02  1.0014287585150799e+02  1.0011191366995534e+02  1.0006105406025657e+02  1.0010326360817572e+02  1.0018077715524213e+02  1.0020092435675984e+02  1.0012154518943399e+02  1.0018928094288916e+02  1.0003643797092019e+02  1.0007490246069295e+02  1.0003469042851816e+02  1.0003613858703106e+02  1.0006601896066155e+02  1.0005117026710089e+02  1.0004060174999067e+02  1.0004286686670277e+02  1.0006580413669634e+02  1.0009247401660129e+02  1.0006036901716190e+02  1.0008952168909325e+02  1.0011111194437647e+02  1.0005717285742271e+02  1.0013651419598611e+02  1.0008093483701184e+02  1.0024270355429522e+02  1.0016281640828001e+02  1.0006872859976028e+02  1.0010845634799524e+02  1.0000860651478681e+02  1.0002435925120743e+02  1.0000013473359343e+02  1.0002314313429858e+02  9.9997251418923582e+01  1.0000621938397316e+02  1.0001314264453563e+02  1.0001988174445884e+02  1.0001393338054878e+02  1.0000705210986929e+02  1.0001092172888252e+02  1.0001907848167814e+02  1.0001694262782149e+02  1.0001108879658955e+02  1.0001026575403350e+02  1.0001322346002507e+02  1.0001939255050996e+02  1.0001049977636379e+02  1.0000596674731490e+02  1.0000377854880202e+02  1.0000458827269357e+02  1.0000831541117971e+02  1.0000955919378929e+02  9.9999610500125456e+01  1.0000615287237555e+02  1.0001129105233856e+02  1.0000401363193112e+02  9.9992931557867834e+01  9.9984730605624875e+01  9.9996104199268999e+01  1.0007448232870574e+02  9.9883830437817821e+01  1.0000440637154678e+02  9.9974126441650881e+01  9.9986570598246189e+01  9.9989513941600748e+01  9.9993792244087771e+01  1.0004893942075788e+02  1.0006158469681610e+02  1.0004697206001246e+02  1.0002290317779286e+02  1.0003869841255448e+02  1.0006945566913909e+02  1.0005649087458639e+02  1.0006872787588574e+02  1.0008288155257036e+02  1.0004302540407038e+02  1.0001752463945309e+02  1.0000681398180316e+02  1.0001042799798905e+02  1.0000645575748672e+02  1.0000827476117595e+02  1.0000699936049000e+02  9.9991481791624707e+01  1.0000815405977144e+02  1.0000848682612370e+02  1.0000779762218015e+02  1.0001933313174911e+02  1.0000261334783738e+02  1.0000486307483541e+02  9.9987951706215881e+01  9.9994552118374841e+01  1.0000314866706923e+02  1.0000069027539107e+02  1.0001669804977625e+02  9.9995451395020794e+01  1.0001115131580552e+02  9.9984990430705139e+01  1.0000768900284024e+02  1.0000602557705925e+02  1.0000318786615463e+02  1.0001514459239908e+02  1.0001143924760825e+02  1.0000498231543047e+02  1.0000237479288558e+02  1.0000830581744829e+02  1.0000959877306460e+02  1.0001508158423620e+02  1.0001611996999392e+02  1.0001720070258584e+02  1.0001206968094161e+02  1.0001067566301391e+02  1.0001459814421516e+02  1.0001528449399882e+02  1.0001883212385827e+02  1.0001876282178777e+02  1.0001335871699371e+02  1.0000487369039583e+02  1.0000447223751810e+02  1.0000837066160881e+02  1.0000726811241076e+02  1.0000384202347379e+02  9.9999264671637974e+01  1.0000156337162097e+02  1.0000407186958859e+02  1.0000164441921122e+02  9.9998320526435009e+01  1.0000892876333138e+02  1.0001204090292487e+02  1.0001009860458333e+02  1.0001479487985956e+02  1.0001044140466581e+02  1.0001468035512690e+02  1.0000381630668932e+02  1.0000447180349911e+02  1.0008305634312447e+02  1.0010289783407184e+02  1.0011297582270851e+02  1.0009813775362659e+02  1.0007450667160244e+02  1.0009142079680795e+02  1.0012607111626052e+02  1.0007910355096489e+02  1.0006372968054150e+02  1.0016197370683724e+02  1.0011205320043007e+02  1.0000824311550215e+02  1.0015463031529993e+02  9.9996016176685686e+01  1.0006381185175964e+02  9.9915803102937858e+01  9.9979967920597659e+01  9.9966000738788523e+01  9.9996965411935761e+01  9.9998107417131465e+01  1.0001335638311770e+02  1.0000851689050236e+02  1.0000713206784653e+02  1.0001625089874662e+02  1.0001386218163319e+02  1.0000897663495208e+02  1.0001284280391444e+02  1.0001174949248180e+02  1.0000835551887320e+02  1.0001935806596278e+02  9.9991336501470656e+01  1.0001606552592148e+02  1.0000633003468378e+02  1.0000419837717222e+02  1.0000711853754525e+02  9.9990811363416000e+01  9.9997094919164255e+01  1.0001229645375049e+02  1.0000713302747045e+02  1.0000571758270516e+02  1.0001299637439152e+02  1.0001683450621069e+02  1.0001400312357268e+02  1.0003242455936311e+02  9.9981677350286517e+01  9.9998176228995433e+01  1.0001503047366080e+02  1.0000765407357171e+02  1.0000580242497151e+02  1.0000339371403129e+02  1.0031989721079104e+02  1.0010771397489462e+02  1.0017445528525312e+02  1.0016207270511586e+02  1.0013725707296807e+02  1.0006501801093482e+02  1.0008139052112911e+02  1.0009789954923210e+02  1.0011923482236304e+02  1.0012507594729560e+02  1.0004063375265382e+02  1.0006378931536098e+02  1.0004352845335852e+02  1.0003679305309372e+02  1.0003651726108089e+02  1.0005813810705844e+02  1.0008757359447078e+02  1.0006556058202391e+02  1.0011161445699253e+02  1.0002561244674622e+02  1.0002261909094317e+02  1.0002245341775782e+02  1.0003176884904784e+02  1.0002898979230012e+02  1.0002643713744692e+02  1.0002977722708434e+02  1.0002472307923425e+02  1.0006166640071797e+02  1.0013806549565449e+02  1.0014084478815064e+02  1.0018041987217173e+02  1.0011024504946084e+02  1.0010250587856027e+02  1.0014633498813723e+02  1.0018015570513163e+02  1.0018891878188117e+02  1.0000525918552695e+02  1.0000747359499287e+02  1.0001635469592969e+02  1.0001538113801745e+02  1.0000041279123057e+02  9.9999494678566691e+01  9.9999106711220890e+01  1.0000635187306483e+02  1.0000883336479994e+02  1.0001452455503244e+02  1.0001729490002833e+02  1.0001286561960063e+02  1.0000744659827787e+02  1.0000734191656564e+02  1.0000638781771389e+02  1.0002670963890048e+02  1.0002431949418826e+02  1.0001936796184791e+02  1.0002413449990134e+02  1.0001289546574786e+02  1.0001700804015294e+02  1.0001061906821128e+02  1.0002540234041902e+02  1.0003145442918671e+02  1.0000266433986553e+02  1.0001636158485975e+02  9.9998989885450356e+01  1.0000006183127667e+02  9.9988361023458964e+01  9.9980940151160510e+01  9.9969693822009532e+01  1.0003407223726639e+02  1.0001004022207944e+02  9.9998515371057664e+01  1.0007916349632676e+02  1.0009013794065882e+02  1.0008503339557657e+02  1.0008026640401816e+02  1.0008746927856181e+02  1.0007570002146927e+02  1.0007565970648869e+02  1.0007942420994367e+02  1.0010038897253561e+02  1.0007959801276512e+02  1.0004438441074660e+02  1.0015005399085804e+02  1.0013560672149028e+02  1.0012491952712327e+02  1.0006830315555652e+02  1.0010213865613392e+02  1.0014172591091720e+02  1.0030705363344367e+02  1.0023664136966879e+02  1.0017651297683254e+02  1.0014814422773607e+02  1.0009556451786318e+02  1.0010268930790262e+02  1.0017941944345023e+02  1.0014494305638929e+02  1.0016947646606657e+02  1.0020582562433975e+02  1.0012134979402315e+02  1.0007408231995325e+02  9.9993648199382108e+01  1.0001281528272912e+02  1.0001217405625322e+02  1.0001191273678182e+02  9.9997997339141364e+01  1.0000960041451030e+02  1.0000541657257166e+02  1.0001029741683034e+02  1.0000641525293156e+02  1.0000877745184881e+02  1.0001007628261921e+02  1.0001257666757367e+02  1.0001070282000342e+02  1.0001516221537032e+02  1.0002432007120916e+02  1.0000305925350784e+02  1.0001866928056957e+02  1.0004456399140376e+02  1.0009852311707168e+02  1.0006171563104569e+02  1.0007165871869600e+02  1.0006762603237541e+02  1.0007718326590356e+02  1.0011494530224192e+02  1.0009575653535697e+02  1.0006365022862572e+02  9.9991845917907000e+01  1.0002033137566467e+02  1.0001513912706459e+02  1.0002638742544711e+02  1.0001850404093831e+02  1.0001656495597088e+02  1.0002061129330269e+02  1.0000818813867197e+02  1.0000742149151617e+02  1.0002981446018751e+02  1.0005714516670223e+02  1.0002273064538160e+02  1.0002099109783975e+02  1.0002566987228730e+02  1.0005567869979913e+02  1.0005550917494185e+02  1.0002191957096043e+02  1.0002881383406410e+02  1.0008015565329011e+02  1.0000865868048773e+02  1.0001277017683522e+02  1.0001599945213755e+02  1.0001380299776243e+02  1.0001085203783376e+02  9.9999066186234458e+01  1.0001414527547070e+02  1.0001750804278565e+02  1.0001815849105142e+02  1.0001330095681611e+02  1.0001013054403550e+02  9.9988301747669141e+01  1.0002033152035489e+02  1.0001688903447604e+02  9.9996294755940980e+01  1.0000066962328324e+02  9.9986571700002131e+01  9.9991258530993463e+01  1.0001146775162290e+02  1.0003916644338975e+02  1.0004430629816433e+02  1.0003014681464408e+02  1.0001073833555608e+02  1.0003744807917404e+02  1.0002147438514442e+02  1.0004389211515196e+02  1.0002608809293409e+02  9.9983431813993917e+01  9.9997720572498494e+01  1.0002816793782556e+02  1.0003425459042072e+02  1.0005735770042521e+02  1.0000077420121519e+02  1.0004484765245114e+02  9.9907418675232876e+01  9.9990287004689080e+01  1.0000037840061752e+02  1.0000192686869001e+02  1.0001085188516250e+02  1.0000782366829482e+02  1.0001893160967641e+02  1.0000049599465041e+02  1.0000551447702753e+02  1.0001819743161778e+02  1.0002932836615570e+02  1.0002504291254110e+02  1.0002076362655440e+02  9.9987388505175531e+01  1.0000182351490849e+02  9.9998782423625215e+01  9.9989539337908312e+01  1.0000076900214013e+02  9.9998100235986414e+01  1.0000433335339241e+02  1.0001990751276286e+02  9.9997928762980891e+01  9.9994803071427029e+01  1.0004403336164205e+02  1.0003067817737498e+02  1.0002838271709142e+02  1.0003884181732694e+02  1.0002653697570689e+02  1.0002840893587329e+02  1.0003893584160672e+02  1.0004823196636784e+02  1.0000158003987498e+02  9.9999921771233943e+01  1.0000369496158301e+02  1.0000480938561699e+02  9.9994899498666456e+01  1.0000672684658744e+02  1.0000463025031574e+02  1.0000646670908765e+02  1.0000247052020343e+02  1.0000232267561417e+02  1.0001093173133323e+02  9.9988017639776430e+01  9.9998763072746144e+01  9.9999572147910172e+01  1.0001011891494143e+02  1.0000855179553753e+02  9.9994915369714519e+01  9.9999573020009848e+01  1.0001483418834052e+02  9.9990069556349113e+01  1.0000626262376886e+02  1.0001732532131412e+02  9.9998162634675381e+01  9.9991379863632417e+01  1.0000314518550655e+02  1.0001391664703401e+02  1.0001697668213045e+02  1.0002084812449579e+02  1.0001488918677053e+02  1.0003528734099666e+02  1.0002777988153716e+02  1.0002439523927515e+02  1.0002912457437111e+02  1.0002609634593225e+02  1.0002272281298855e+02  1.0002043305293078e+02  1.0001429327926054e+02  1.0001531952542385e+02  1.0002056485864033e+02  9.9999322423983074e+01  1.0001403689899847e+02  1.0000633986527130e+02  1.0000886278615323e+02  1.0000478617734011e+02  9.9988121325990619e+01  9.9991661254301178e+01  9.9994621391990705e+01  1.0000735589153223e+02  1.0000196132701443e+02  1.0009369813400063e+02  1.0008925676759870e+02  1.0009101240692699e+02  1.0010935782239433e+02  1.0008548988572707e+02  1.0010693968309386e+02  1.0000651768741737e+02  1.0001036452357413e+02  1.0000564938248122e+02  1.0001155952902251e+02  1.0001305276211441e+02  9.9995725556690942e+01  1.0000255475582129e+02  1.0001909775370105e+02  1.0001075034644461e+02  1.0001080551830006e+02  1.0002938360092438e+02  1.0003749763606535e+02  1.0002214290876894e+02  1.0001741342134801e+02  1.0001682125446146e+02  1.0003010902221490e+02  1.0004274786493943e+02  9.9994633828351752e+01  9.9998159549621661e+01  9.9998383643078796e+01  1.0000681970562013e+02  1.0000614207552604e+02  1.0000898306141272e+02  1.0000621276204747e+02  1.0000892467076255e+02  1.0000322153618799e+02  1.0000617824907533e+02  1.0000159288930267e+02  1.0001511665677239e+02  1.0002169893564830e+02  1.0001262438832127e+02  1.0001276091410161e+02  1.0000168866343731e+02  1.0001179807566635e+02  1.0001315350237360e+02  1.0001690511011242e+02  1.0000626480675790e+02  1.0000267477418929e+02  1.0000616880649956e+02  1.0000734013418032e+02  1.0000215578455172e+02  9.9996244156363602e+01  1.0000649856052675e+02  1.0000021060523216e+02  1.0000988895500247e+02  1.0000648846022355e+02  1.0000716607849662e+02  1.0006655007524830e+02  1.0016774645530866e+02  1.0004787366254469e+02  1.0014115957123687e+02  1.0068018892876414e+02  1.0027669194081760e+02  1.0082087039723390e+02  1.0080124185596026e+02  1.0026029897747297e+02  1.0023589540472643e+02  1.0007513063786790e+02  1.0012782385421959e+02  1.0018609203448761e+02  1.0012154132255708e+02  1.0011144928957778e+02  1.0020191477745323e+02  1.0013594236582661e+02  1.0014365232212383e+02  1.0013040910077056e+02  1.0006581092244097e+02  1.0005661948339323e+02  1.0005385207571514e+02  1.0004567220549400e+02  1.0003451889709184e+02  1.0004257114978606e+02  1.0004726956382564e+02  1.0000713183615338e+02  1.0000892008002950e+02  1.0000730835397854e+02  1.0000890431901382e+02  1.0001279571521526e+02  1.0001080100137929e+02  1.0001045565526627e+02  1.0000870749806512e+02  1.0001878560938584e+02  1.0004868892359930e+02  1.0004515108119637e+02  1.0000958771051175e+02  1.0001965070117816e+02  1.0001998692060013e+02  1.0003693485834465e+02  1.0003944765205092e+02  1.0003316007174773e+02  1.0003376699784376e+02  1.0000993506067532e+02  9.9997698335731897e+01  9.9995242886361751e+01  1.0000005758406162e+02  9.9998941720141758e+01  9.9998692245317670e+01  9.9996252693712009e+01  9.9993876712751586e+01  1.0000162180901634e+02  1.0000166350960468e+02  1.0002283030445606e+02  1.0001190039833710e+02  1.0002411208210917e+02  1.0001799214754689e+02  1.0001912145247555e+02  1.0000991082121986e+02  1.0001460405121611e+02  1.0000936953658365e+02  1.0006272832957684e+02  1.0003590091197528e+02  1.0005133957604666e+02  1.0004382482274453e+02  1.0004547021496056e+02  1.0003308245505946e+02  1.0002975531290070e+02  1.0002640079823644e+02  1.0003215564943828e+02  1.0003469496323288e+02  1.0004598593397316e+02  1.0002974299180049e+02  1.0003535692837680e+02  1.0005216608811622e+02  1.0003706790659460e+02  1.0003397898721032e+02  1.0003733220692358e+02  1.0003606722183241e+02  1.0002799135456313e+02  1.0003083154007317e+02  1.0003454659755096e+02  1.0002849674887418e+02  1.0003163295886533e+02  1.0002215650967445e+02  1.0001820149782395e+02  1.0003083143461463e+02  1.0005123310203261e+02  1.0005191390402268e+02  1.0003097321957398e+02  1.0003358385152492e+02  1.0002831831852461e+02  1.0004746505363526e+02  1.0003241532611476e+02  1.0007089560372464e+02  1.0002246331889417e+02  1.0003009066072944e+02  1.0002818478537193e+02  1.0003216283720637e+02  1.0002745295725182e+02  1.0004786420856385e+02  1.0001649989001692e+02  1.0000885113237962e+02  1.0001697679215494e+02  1.0000777732151265e+02  1.0000939177209005e+02  1.0001036808909426e+02  1.0002492984001610e+02  1.0000231319554793e+02  9.9993644682145387e+01  1.0002459290055089e+02  1.0007819752449721e+02  1.0008929854890981e+02  1.0005037277747502e+02  1.0005562928255198e+02  1.0002304180433426e+02  1.0002998709843428e+02  1.0005226367113426e+02  1.0007740306317113e+02  1.0002458471691178e+02  1.0002324039719628e+02  1.0003231674861568e+02  1.0003516400310929e+02  1.0001701255236004e+02  1.0003105820156381e+02  1.0003900115670280e+02  1.0003800461302177e+02  1.0001967047616283e+02  1.0004485282909228e+02  1.0002636161557308e+02  1.0003068945842273e+02  1.0003040969556312e+02  1.0001392033485044e+02  1.0002912283811322e+02  1.0000567659500440e+02  1.0003762070124939e+02  1.0003224836705728e+02  1.0003915794432963e+02  1.0005638804652226e+02  1.0003009434538127e+02  1.0003745132385049e+02  1.0005288288007701e+02  1.0005642479514840e+02  1.0006242040699030e+02  1.0004824864238492e+02  1.0003525775717752e+02  1.0004305414390943e+02  1.0000961806040937e+02  9.9993891775535360e+01  9.9990028189796519e+01  1.0000392061894514e+02  1.0000260714892359e+02  9.9986188247617079e+01  1.0000148954106841e+02  1.0000563714731418e+02  1.0001347890146675e+02  1.0000714742402369e+02  1.0000322881756156e+02  9.9982139723074638e+01  1.0000659164776067e+02  1.0001614467772947e+02  1.0000283542980290e+02  9.9956467027579535e+01  9.9989210813102716e+01  1.0001585128008458e+02  1.0004599479788881e+02  1.0000153700191198e+02  1.0003299554002247e+02  9.9968228489763320e+01  9.9987563047291474e+01  9.9979805596536252e+01  1.0000535540778233e+02  1.0002787338904307e+02  1.0009047738828149e+02  1.0007699145748362e+02  1.0005859228623811e+02  1.0004395875246703e+02  1.0005400486443317e+02  1.0012201407864968e+02  1.0010176295170325e+02  1.0008522172921674e+02  1.0010600902835643e+02  1.0000870226495309e+02  1.0001132852615847e+02  1.0001089636537735e+02  1.0001117166641737e+02  1.0000770988234866e+02  1.0000615950296597e+02  1.0000172739997201e+02  1.0002018558972118e+02  1.0004939453032668e+02  1.0003417785692999e+02  1.0003135073084485e+02  1.0001468345646181e+02  1.0003071011269370e+02  1.0003119280377742e+02  1.0003861745429136e+02  1.0003490737298210e+02  1.0003852383841051e+02  1.0005671338475831e+02  1.0004192192785887e+02  1.0003402395191398e+02  1.0005033016410815e+02  1.0003283183631260e+02  1.0004248605369111e+02  1.0004873715049152e+02  1.0006505848284705e+02  1.0004337640281841e+02  1.0000685746187368e+02  9.9986091257219343e+01  9.9991480686399129e+01  9.9975866118706264e+01  9.9971283009098144e+01  9.9997181028735483e+01  1.0001717328288174e+02  1.0005419687282976e+02  1.0004913779657558e+02  1.0003972294625852e+02  1.0002911632117608e+02  1.0005552152413399e+02  1.0006367716936592e+02  1.0004844090197770e+02  1.0003208286620392e+02  1.0008097282830661e+02  1.0010318454933851e+02  1.0018136036526464e+02  1.0019815267491552e+02  1.0019580391658106e+02  1.0013894205679117e+02  1.0031904518216331e+02  1.0018214353351188e+02  1.0029637668906088e+02  1.0011466593498811e+02  1.0023866431130241e+02  1.0006684675859071e+02  1.0009083950488294e+02  1.0005870609274182e+02  1.0003169393008002e+02  1.0003975529168999e+02  1.0008174931289254e+02  1.0007792724349214e+02  1.0010205966549181e+02  1.0000931373606277e+02  1.0011189656863750e+02  1.0030822449213888e+02  1.0020791275952169e+02  1.0019998469140631e+02  1.0013517124603194e+02  1.0019295248569819e+02  1.0022009701881426e+02  1.0001391958685529e+02  1.0002748814501891e+02  1.0002935606003588e+02  9.9994653861364370e+01  9.9995288087219379e+01  9.9992623186285499e+01  1.0001589709288932e+02  1.0002689545432062e+02  1.0002755353322385e+02  1.0001936081449871e+02  1.0001313616690702e+02  1.0002901839070283e+02  1.0002186226673459e+02  1.0001269848765146e+02  1.0003107329434873e+02  1.0003847222060217e+02  1.0000756270635964e+02  1.0000970177003116e+02  1.0001040062405269e+02  1.0001601373082043e+02  1.0000797568320722e+02  9.9995898349686044e+01  1.0001463745101181e+02  1.0000336193633095e+02  1.0000735593466450e+02  1.0000627859649772e+02  1.0001147884629492e+02  1.0000825572010767e+02  1.0000123008326545e+02  1.0000115935877459e+02  9.9999262343378533e+01  1.0000617098414584e+02  1.0000842782886519e+02  9.9999321004779702e+01  1.0000045629443045e+02  1.0000365882439448e+02  9.9982947792159678e+01  1.0003468205494305e+02  1.0004269679997664e+02  1.0007299181892861e+02  1.0001316084501768e+02  9.9988102242521393e+01  9.9995395692161935e+01  9.9991828818381791e+01  9.9986763156982363e+01  9.9980739828709360e+01  1.0000878501171273e+02  1.0002012134216618e+02  1.0001961449241792e+02  1.0003784698954136e+02  1.0009763513278968e+02  1.0027520679752752e+02  1.0032664213825068e+02  1.0018661638774070e+02  1.0024324451969079e+02  1.0031662051159948e+02  1.0044596711523194e+02  1.0019435059185430e+02  1.0031049698778868e+02  1.0046261427432870e+02  1.0030209316523728e+02  1.0017914299820247e+02  1.0018807576414110e+02  1.0012796924589458e+02  1.0030594427411289e+02  1.0024260959383587e+02  1.0012505860465478e+02  1.0012028567148343e+02  1.0033561343127433e+02  1.0000718086454330e+02  1.0000800520632453e+02  1.0000659839204029e+02  1.0000228508408338e+02  1.0003031939092388e+02  1.0009521511210669e+02  1.0007817008344533e+02  1.0009014183518940e+02  1.0002756393118115e+02  1.0002017249560602e+02  1.0139267265929122e+02  1.0042864821259995e+02  1.0185953955053917e+02  1.0064108400177398e