<?xml version="1.0"?>
<VTKFile type="UnstructuredGrid"  version="0.1"  >
<UnstructuredGrid>
<Piece  NumberOfPoints="6982" NumberOfCells="32668">
<Points>
<DataArray  type="Float64"  NumberOfComponents="3"  format="ascii">16.28589057922363 38.11605834960938 28.97397994995117  16.72401200700223 38.57772427250079 28.95860326952294  16.5818696371596 38.39583206363674 29.31562127456834  16.28352950464152 38.61381882124468 29.01459762788862  16.28116843005941 39.11157929287998 29.05521530582607  16.72165093242012 39.07548474413609 28.99922094746039  16.57950856257749 38.89359253527204 29.35623895250578  16.87784869509557 38.6756057776641 29.6572625991855  17.0199910649382 38.85749798652816 29.3002445941401  17.16213343478083 39.03939019539221 28.94322658909471  16.29574966430664 39.33050155639648 28.2886905670166  16.51105903039836 38.85687035017534 28.57522747255415  16.72894154954373 39.18494587589434 28.61595857805565  16.28845904718303 39.22104042463823 28.67195293642133  16.04406547546387 38.46002388000488 28.67867469787598  15.8022403717041 38.80398941040039 28.38336944580078  16.04170440088176 38.95778435164019 28.71929237581342  16.04899501800537 39.06724548339844 28.33603000640869  15.97008991241455 39.89572906494141 29.20986938476562  16.57688449273967 39.50365417891069 28.91049740053266  16.71218894372844 39.50365417891069 29.29214260316938  16.12562917123698 39.50365417891069 29.13254234529585  16.42134523391724 39.89572906494141 28.98782444000244  16.55664968490601 39.89572906494141 29.36946964263916  17.14320945739746 39.89572906494141 29.5290699005127  17.00790500640869 39.89572906494141 29.14742469787598  16.87260055541992 39.89572906494141 28.76577949523926  17.15267144608914 39.4675596301668 29.2361482448037  17.01736699510037 39.4675596301668 28.85450304216698  17.01052907624652 39.28566742130275 29.5931662498491  17.41053643538699 39.19571321925983 29.68279691773294  16.58417510986328 39.61311531066895 28.52723503112793  16.1329197883606 39.61311531066895 28.74927997589111  17.30046558380127 39.89572906494141 28.83429431915283  17.06826451936175 38.26560211368557 29.15269173965623  16.91608956971575 38.1387786883926 29.50007142410447  16.62011051177979 37.85900497436523 29.1584300994873  16.95433044433594 37.60195159912109 29.34288024902344  17.29901937165667 39.28566742130275 30.04818143234422  17.43169975280762 39.89572906494141 29.98408508300781  17.72019004821777 39.89572906494141 30.43910026550293  17.69902673079715 39.19571321925983 30.13781210022805  17.67786341337652 38.49569737357825 29.83652393495318  17.27785605423605 38.58565157562118 29.74689326706934  14.633620262146 34.02962875366211 34.00790023803711  15.39706398195902 33.83814238857151 33.59008401711445  15.12804390139262 33.51758765529515 33.49632448037129  14.84415889925639 34.03471183132054 33.52877992470722  15.18652534484863 33.83305931091309 34.06920433044434  14.91750526428223 33.51250457763672 33.97544479370117  15.73943042755127 33.63648986816406 34.13050842285156  15.05469753636678 34.03979490897895 33.04965961137734  15.43516757725466 35.1936476050992 31.86470157577187  15.78737161702009 34.4409960885847 31.86327222898603  15.25230740754012 34.6087885776322 31.93296985298165  15.68899816089197 34.32873422596776 32.26945854099099  15.06944723782559 34.02392955016519 32.00123813019143  11.91036033630371 32.10058975219727 32.0369987487793  12.46781492233276 31.56173992156982 32.00621032714844  12.4801410720539 31.84038774627768 32.4082318130794  12.35553026199341 32.09490966796875 32.02586936950684  12.02264499664307 31.56742000579834 32.0173397064209  12.13492965698242 31.03425025939941 31.9976806640625  12.59242573239325 31.30721799987876 32.388572770721  12.80070018768311 32.08922958374023 32.01473999023438  12.92531099774359 31.83470766204917 32.39710243380694  13.04992180780408 31.5801857403581 32.7794648773795  15.03896045684814 35.06830978393555 31.0457592010498  15.05420384733687 34.54611966705037 31.52349866562062  15.33540534973145 34.60671043395996 31.03080463409424  14.86755514144897 34.64972496032715 31.10873985290527  14.6961498260498 34.23114013671875 31.17172050476074  15.99594020843506 33.60123825073242 39.89208984375  15.87317081275291 33.53853593002954 39.1112958440015  15.43700547995872 33.11871132980981 39.37415518848393  15.56154580893821 33.51918587814966 39.37415518848393  15.12715140944137 33.43713350556689 38.85622053321786  15.06565870165223 34.71239387090898 31.51821104026631  15.2370640170514 35.13097869451737 31.45523038841084  14.8827985319377 34.12753484344197 31.58647931747609  10.74551963806152 31.00473976135254 32.7353515625  11.07123994827271 30.79117012023926 32.53768539428711  11.21486473083496 30.83700466156006 32.78174018859863  10.99417972564697 31.13451480865479 32.44523048400879  11.24283981323242 31.26428985595703 32.15510940551758  11.31990003585815 30.9209451675415 32.2475643157959  11.46352481842041 30.9667797088623 32.49161911010742  11.6842098236084 30.66926956176758 32.82812881469727  11.54058504104614 30.62343502044678 32.58407402038574  11.39696025848389 30.57760047912598 32.34001922607422  16.35578918457031 34.05279159545898 34.50603866577148  16.48413801914207 34.41981326212439 34.34366944428325  16.80388927459717 34.20452117919922 34.44778442382812  16.47455501556396 34.39487075805664 34.66522026062012  16.59332084655762 34.7369499206543 34.82440185546875  16.60290385013572 34.76189242472205 34.50285103913188  16.92265510559082 34.54660034179688 34.60696601867676  16.61248685371381 34.78683492878981 34.18130022279501  15.35371971130371 34.35601043701172 34.52650833129883  15.90502959403925 34.22111463085733 33.8856907102096  15.71217423591547 34.58087491528116 34.08369066443323  15.85475444793701 34.20440101623535 34.51627349853516  15.54657506942749 33.99625015258789 34.3285083770752  16.04760980606079 33.84464073181152 34.31827354431152  16.21320897254877 34.42926549450479 34.07345583166956  16.07062876052722 34.8057393935506 33.64087299756764  12.14099979400635 31.48862075805664 33.28501892089844  12.13796472549438 31.26143550872803 32.64134979248047  11.91260480880737 31.07894515991211 33.05657386779785  11.69191980361938 31.37645530700684 32.72006416320801  11.90956974029541 30.8517599105835 32.41290473937988  11.68888473510742 31.14927005767822 32.07639503479004  11.29777002334595 31.32512950897217 32.69975471496582  11.0491099357605 31.19535446166992 32.98987579345703  11.35270023345947 31.3859691619873 33.24440002441406  11.51845502853394 31.02761936187744 33.03626441955566  12.02568006515503 31.79460525512695 32.66100883483887  11.57660007476807 31.68243980407715 32.09605407714844  11.74685001373291 31.43729496002197 33.26470947265625  11.63153028488159 31.74327945709229 32.64069938659668  16.71040757253693 34.38783798110762 33.95102553658927  15.5335089099347 34.66937934454179 31.44027582145527  16.16747093200684 34.15401840209961 39.2601203918457  15.85514064612693 33.70940766464868 38.78617491809818  15.6473111707241 33.79557595383325 39.05817046253178  16.37530040740967 34.06785011291504 38.98812484741211  16.5831298828125 33.98168182373047 38.71612930297852  14.56905866808573 33.61035727809788 33.40858453591328  14.35852003097534 33.60527420043945 33.88770484924316  14.08341979980469 33.1809196472168 33.76750946044922  12.59546080090522 31.53440324920737 33.03224189913897  16.9170093536377 35.18027877807617 34.64147186279297  17.01079321628562 35.03268252481971 34.12975075837016  17.33054447174072 34.81739044189453 34.23386573791504  16.76474810367576 34.98355685343299 34.41138604279399  17.16305446624756 35.22940444946289 34.35983657836914  17.08449935913086 34.76826477050781 34.51550102233887  17.40909957885742 35.27853012084961 34.07820129394531  16.34155780712052 34.7962871611702 33.91108661018133  16.43947852594363 34.39729021348802 33.68081192397559  16.37935913509313 33.21914998527666 38.63732811123341  16.75516510009766 34.95861434936523 34.73293685913086  16.6312779718895 34.87665346326858 33.55872632944767  15.98310328250876 34.57142268290076 34.35390427704692  15.72049917101258 35.01177894170976 31.42151609397725  15.52239561080933 34.94911003112793 31.01204490661621  16.00583076477051 34.82991027832031 30.97833061218262  12.38605976104736 34.70022964477539 36.07826995849609  11.57020618795731 35.04668869993445 36.14935292307578  11.99630034518048 34.88641564540612 35.82261075385357  12.31731392214773 35.52199756909212 36.2104385295747  11.95996560382419 34.86050269930372 36.40501212771831  12.2485680832481 36.34376549340885 36.34260710065332  11.92755450628085 35.70818356972285 35.95477932493218  11.89121976492456 35.68227062362045 36.53718069879692  11.53387144660103 35.02077575383205 36.73175429694053  11.6065409293136 35.07260164603684 35.56695154921104  8.121655464172363 37.74383163452148 33.07558059692383  8.828947985893876 38.05819451866252 32.8095815159897  8.808111041409155 37.69366504882325 33.06595178178193  8.515619128567359 37.85420086120118 33.2615122371042  8.41414737701416 37.58329582214355 32.88002014160156  8.434984321498881 37.94782529198284 32.62364987580933  8.706639289855957 37.42276000976562 32.6844596862793  8.727476234340678 37.78728947960491 32.42808942048707  8.748313178825397 38.15181894944418 32.17171915469483  8.909582792962354 37.96457008788087 33.44744387728456  10.08242034912109 37.74050140380859 30.72151947021484  10.48725735987336 38.45155422792126 31.16081390879879  10.0385843720343 38.36293496760165 31.40180541293453  10.32638291722428 37.90350195772373 31.17842636708861  10.24329479177018 38.28855367400611 30.70390701192503  9.794621803931115 38.19993441368651 30.94489851606076  9.506823258741134 38.65936742356441 31.16827756190667  9.955496246580196 38.74798668388402 30.92728605777094  10.40416923441926 38.83660594420363 30.68629455363521  10.57034548532746 38.06650251163888 31.63533326396238  14.12905979156494 39.89572906494141 33.02558135986328  14.73720842457719 39.47155149515082 32.77559288330585  14
[...]
<PointData  Scalars="p_O2"> 
<DataArray  type="Float64"  Name="p_O2"  format="ascii">1.0000734474168736e+02  9.9989916573003498e+01  1.0000875923356605e+02  9.9993947667895995e+01  1.0000440653082077e+02  1.0004378211369827e+02  1.0001120880767714e+02  1.0000645902129311e+02  1.0000827718308491e+02  1.0003709487942133e+02  1.0000282729463190e+02  9.9984141257311833e+01  9.9980535681705035e+01  9.9992899744836194e+01  1.0002300608868843e+02  1.0000729507554709e+02  1.0000069980746915e+02  1.0001620790766795e+02  9.9995108927488403e+01  1.0005765789608338e+02  1.0002199321153232e+02  9.9977305094214017e+01  1.0001706912634089e+02  1.0002214694045732e+02  1.0001416138236902e+02  9.9985450260480235e+01  9.9995455451135840e+01  1.0001456291416486e+02  9.9991181158048761e+01  1.0000006372466088e+02  1.0000077679705781e+02  1.0003184820387325e+02  9.9987432897492070e+01  9.9968024528900472e+01  1.0000520570758381e+02  1.0000516241928418e+02  1.0001281675252282e+02  1.0000539882983617e+02  1.0000341204482211e+02  9.9999060185800062e+01  1.0000130882146780e+02  9.9998883780300019e+01  9.9997911542437777e+01  9.9999299883265550e+01  9.9966481472822693e+01  1.0000785213095764e+02  1.0002026668514772e+02  1.0000648019725504e+02  1.0002427041619777e+02  1.0001014816169607e+02  9.9989296996453319e+01  1.0000264990988543e+02  9.9997922356734577e+01  1.0000659527025475e+02  9.9999541762329287e+01  9.9998993244253001e+01  9.9999483109251329e+01  9.9975211604737382e+01  9.9973843814096696e+01  9.9960043547695861e+01  9.9989382335334270e+01  1.0003406213468905e+02  9.9929973239121679e+01  1.0000176069012888e+02  9.9995797701399511e+01  1.0000128854318982e+02  1.0000213001765120e+02  1.0001039078145118e+02  9.9998117450406653e+01  9.9952668887491200e+01  1.0001120202055378e+02  1.0001535634181208e+02  1.0001418690097427e+02  9.9980405537457656e+01  9.9996806088476973e+01  1.0002150198701234e+02  9.9994739742296332e+01  1.0000758713584138e+02  1.0000113075812942e+02  9.9999332570513772e+01  1.0042783787114406e+02  1.0046530879445184e+02  1.0013113230884893e+02  9.9825370696568058e+01  1.0004244274731751e+02  9.9849402326469288e+01  9.9959162000780793e+01  9.9972265772964306e+01  1.0007411770483816e+02  1.0007637825060282e+02  1.0001449775319965e+02  9.9987827445955929e+01  1.0006751282003766e+02  9.9981498822868616e+01  1.0000336538090508e+02  9.9975330240261954e+01  9.9964500635315332e+01  1.0000932792567333e+02  1.0000045140563705e+02  1.0000058038383204e+02  9.9994766874382236e+01  9.9960834313950031e+01  1.0001575326887566e+02  1.0001615585612559e+02  1.0000512632884983e+02  1.0000116452199771e+02  1.0001477935626153e+02  9.9967639828479079e+01  9.9973352457345115e+01  9.9937484032788063e+01  9.9971547773842474e+01  1.0001262783207176e+02  1.0009195518176722e+02  1.0014510602359421e+02  1.0000327266895539e+02  9.9986537460207131e+01  9.9914235205658571e+01  9.9941744264136403e+01  1.0009338340952878e+02  9.9947170034537365e+01  1.0000475522856847e+02  9.9984927187243301e+01  1.0002208337066611e+02  1.0001023384221766e+02  1.0002814973028377e+02  1.0000063363808435e+02  9.9979746350753217e+01  9.9996514270095361e+01  1.0009040354972120e+02  9.9972405634221118e+01  1.0004203201768030e+02  9.9979398036719019e+01  1.0000787433378105e+02  9.9951150920360490e+01  9.9999822728280250e+01  1.0000353169261220e+02  9.9974721913998593e+01  1.0000110308094052e+02  1.0000130894875524e+02  1.0000530350134567e+02  9.9986612972089702e+01  1.0001258193648614e+02  1.0000084520993114e+02  9.9962636398293839e+01  9.9989099118218306e+01  1.0000406662158650e+02  1.0001522415684735e+02  1.0000807223311587e+02  9.9994527679156604e+01  9.9994282718918484e+01  9.9988031479352941e+01  9.9983906260662280e+01  9.9996721422542123e+01  9.9984215191264553e+01  9.9985815760310985e+01  9.9994688628014103e+01  1.0000168137889293e+02  1.0000632480004728e+02  9.9999162484680085e+01  9.9991152176984656e+01  1.0002546589266453e+02  9.9992551760315749e+01  1.0004916787521661e+02  9.9919320346309561e+01  1.0002563641224670e+02  9.9982672068118731e+01  9.9982533083933205e+01  1.0000720485613415e+02  9.9990150862305910e+01  9.9983354045289332e+01  9.9994889332947551e+01  9.9974543931284131e+01  1.0001016603638085e+02  9.9982059809675349e+01  9.9985376552742508e+01  9.9991090267814755e+01  9.9995419580663295e+01  9.9999272807577825e+01  9.9998828596050203e+01  9.9999857701152862e+01  9.9999545914330668e+01  9.9999422970484630e+01  9.9999908204770861e+01  9.9999308216372256e+01  1.0000018845193378e+02  9.9999867007459869e+01  9.9999288003462723e+01  9.9998072916678794e+01  9.9987410040352685e+01  9.9998362279364883e+01  1.0002035113551770e+02  9.9980766237143484e+01  9.9990085306953588e+01  9.9996315011294442e+01  1.0000083327269429e+02  9.9994341901307834e+01  9.9992908226581264e+01  9.9991883136939890e+01  9.9993132760087278e+01  9.9986769571658314e+01  9.9995792214462881e+01  1.0000314123198487e+02  9.9981325019544386e+01  9.9999565674455440e+01  1.0000092511198642e+02  9.9992068035452917e+01  1.0000186683343405e+02  9.9997244110654833e+01  9.9998427241108956e+01  9.9998844603879974e+01  9.9995672054769742e+01  9.9995329536625874e+01  9.9998456504824432e+01  1.0000048731056918e+02  1.0000319654806276e+02  9.9995461246039241e+01  9.9994472432359913e+01  9.9995070374043820e+01  1.0000064495509946e+02  1.0000224637932376e+02  9.9995911481964910e+01  9.9991216305167299e+01  9.9995294435412745e+01  9.9999897364201345e+01  9.9999967442187668e+01  1.0000051386020228e+02  9.9999667792275972e+01  9.9999989981605751e+01  9.9998786953173962e+01  9.9998680049891092e+01  9.9998417458386754e+01  9.9998377265071468e+01  9.9996610904285632e+01  9.9986795868679891e+01  9.9987203097596620e+01  9.9971686180130348e+01  9.9981012381753771e+01  9.9973653212942821e+01  9.9946953685412154e+01  9.9963566223284047e+01  9.9960830489272155e+01  9.9961839686695953e+01  9.9974464961854025e+01  9.9988226000991460e+01  9.9992748663641223e+01  9.9987548358093960e+01  9.9981115134907000e+01  9.9979547956380244e+01  9.9978418821727715e+01  9.9977877359578642e+01  9.9981789883535129e+01  9.9987688169953699e+01  9.9993114317745125e+01  9.9989410359277286e+01  9.9996418372807611e+01  1.0000444443679601e+02  9.9990317097987614e+01  1.0000383581377926e+02  9.9991433849804864e+01  1.0000759754646553e+02  9.9999825351154612e+01  9.9996291374538131e+01  9.9989428713633970e+01  9.9997444161866582e+01  9.9995110013545030e+01  9.9996489703473657e+01  1.0001037017343633e+02  9.9983300148708835e+01  1.0002185808912651e+02  9.9997962154192109e+01  1.0000142412084556e+02  1.0000680760011957e+02  9.9997631190308155e+01  9.9992487815623974e+01  9.9987050296863245e+01  9.9987426867153985e+01  9.9993982684281832e+01  9.9994858426064809e+01  9.9994045978431018e+01  9.9989960022883011e+01  9.9993770683349524e+01  9.9985646391486199e+01  9.9996354399864032e+01  9.9996517404142836e+01  9.9995784446055325e+01  9.9994963285830167e+01  9.9983254747798071e+01  9.9949778254026754e+01  1.0002506376368359e+02  9.9999684511586636e+01  9.9993172407223994e+01  9.9984621655389276e+01  1.0000261656122542e+02  1.0000573953353218e+02  1.0000448835969705e+02  9.9994767705355073e+01  9.9998457122049274e+01  9.9999595859946353e+01  9.9996870707452658e+01  1.0000767200307850e+02  1.0000246267613831e+02  9.9996099068924465e+01  1.0000156411859297e+02  9.9981900225494897e+01  9.9997728498904848e+01  9.9984592162269166e+01  9.9988900994749699e+01  9.9984054328277082e+01  9.9987943153066368e+01  9.9986015402992933e+01  9.9989092147340628e+01  9.9990371855856111e+01  9.9973674931508242e+01  9.9999107229782751e+01  9.9998845179184997e+01  9.9998305148046157e+01  9.9997898132396699e+01  9.9998946944019394e+01  9.9999806829750256e+01  9.9997473239972365e+01  9.9998858902474950e+01  9.9997629101399781e+01  1.0000068035643366e+02  1.0001722832831257e+02  9.9997027929497094e+01  1.0001465971792767e+02  9.9988518606550670e+01  9.9997627947706206e+01  1.0003082042510583e+02  9.9964771786918661e+01  1.0006604364562159e+02  9.9997934445489847e+01  1.0000305198974047e+02  9.9994747229001149e+01  9.9989766528236416e+01  9.9997185380876815e+01  9.9998808887781280e+01  1.0000090106636409e+02  9.9999535121500372e+01  9.9999880858764811e+01  9.9998123802883327e+01  9.9995646059910996e+01  1.0003385288196483e+02  1.0001465825122422e+02  9.9978518343802321e+01  1.0001426622795806e+02  9.9854447457377773e+01  1.0003570088872674e+02  1.0005213513934478e+02  9.9975879720899499e+01  1.0005494046133840e+02  1.0000514481182054e+02  1.0000071045447051e+02  9.9998419424059250e+01  9.9994262940985323e+01  9.9998582207732312e+01  9.9992599616892406e+01  1.0000064567754107e+02  9.9987604355424125e+01  9.9984615356624104e+01  9.9996621212142813e+01  9.9998558504221748e+01  9.9998799894320797e+01  9.9999368085595989e+01  9.9999022307308863e+01  9.9999036922223070e+01  9.9998297014748530e+01  9.9998844516115682e+01  9.9998558849408752e+01  9.9997132125765489e+01  9.9975749297350760e+01  9.9952565313228220e+01  9.9969927370756082e+01  1.0001693942092291e+02  9.9974473583257719e+01  9.9948985237707845e+01  9.9962223323643983e+01  9.9968482912080944e+01  9.9968020082323591e+01  9.9965774288693638e+01  9.9991723431897654e+01  9.9993920506897638e+01  1.0000113578532864e+02  1.0000175038348831e+02  9.9997547199923858e+01  9.9991961991505036e+01  9.9997689711812654e+01  1.0000279767490966e+02  1.0000000807665484e+02  9.9998465547351515e+01  9.9991707503585403e+01  9.9997029443725665e+01  9.9990190155458322e+01  9.9997797742578285e+01  9.9995202011464954e+01  9.9993493544524100e+01  9.9986272349179771e+01  9.9997359564006302e+01  9.9999040947574727e+01  9.9997140797182468e+01  1.0000051785768071e+02  9.9998422732505531e+01  9.9998594808886793e+01  9.9999652816954097e+01  9.9997534953603022e+01  9.9999259485793687e+01  1.0000070304023767e+02  9.9997097175988799e+01  1.0000388891102627e+02  1.0000170626563818e+02  9.9993705390855169e+01  9.9984853871163494e+01  1.0000014633238538e+02  9.9992659918972123e+01  1.0000327973714015e+02  1.0000400501356360e+02  9.9994541498379121e+01  9.9994841647702529e+01  9.9968481878338537e+01  9.9993294366508550e+01  9.9991357436947141e+01  9.9995181395678827e+01  1.0000054300554905e+02  9.9998280643075049e+01  9.9996555734992540e+01  1.0000042534723039e+02  1.0000180381893931e+02  1.0001052002874643e+02  9.9986742840447704e+01  1.0001502155722532e+02  9.9998972386159366e+01  9.9975660102901486e+01  1.0002108188734501e+02  1.0001007733492901e+02  9.9995478326817278e+01  1.0001408340941647e+02  9.9990698350781017e+01  9.9995949648117303e+01  1.0000296578771813e+02  9.9995411509574254e+01  1.0000504034621017e+02  1.0001680898683394e+02  9.9990979296731311e+01  9.9992781816139285e+01  1.0000977207149167e+02  9.9997745317831786e+01  9.9997014800589824e+01  9.9993220539909245e+01  9.9989849959101448e+01  9.9999947286633571e+01  9.9997385333255281e+01  9.9991489711279584e+01  1.0000067705128282e+02  9.9998351393786891e+01  9.9993849416556870e+01  9.9993798916179117e+01  9.9999065718988859e+01  9.9992972546055938e+01  9.9993478292805790e+01  9.9996585797702167e+01  9.9992403846400279e+01  9.9999331640494105e+01  9.9997624830669267e+01  9.9994728773626235e+01  9.9996641169190056e+01  9.9997095858956371e+01  9.9997466321112086e+01  9.9975053322960818e+01  9.9996044609132895e+01  1.0000294721986320e+02  1.0001466680979132e+02  9.9969246671384298e+01  9.9990448363485598e+01  9.9994081208543889e+01  1.0000147805775994e+02  9.9985475948367750e+01  9.9995311537833970e+01  9.9999751608740326e+01  9.9934951550643362e+01  1.0000484486275018e+02  1.0001652217749309e+02  1.0000039490277277e+02  1.0000130186458104e+02  9.9997903212482669e+01  9.9999733734956308e+01  9.9999757371323568e+01  9.9994405981336527e+01  9.9998394317931954e+01  9.9998404421713502e+01  9.9997074070799499e+01  9.9999649345091527e+01  9.9991842241396682e+01  9.9997353433825381e+01  1.0000345580886543e+02  9.9998880564208321e+01  9.9993913390026393e+01  9.9999206568632047e+01  9.9996818104778228e+01  1.0000153251071310e+02  9.9996924852175837e+01  1.0000019423358545e+02  1.0000079568242478e+02  1.0000090487667390e+02  1.0000071556752749e+02  9.9999598511898853e+01  1.0000055223013290e+02  9.9998461378715120e+01  9.9999581671180479e+01  9.9998490916267883e+01  1.0002230963283061e+02  9.9983765491718088e+01  9.9995135889501213e+01  9.9985078672889045e+01  1.0000341331132654e+02  9.9981767888019519e+01  1.0000831013317193e+02  9.9997350402951255e+01  9.9997418816004753e+01  9.9999700433286634e+01  1.0004096481145790e+02  9.9982307277197506e+01  1.0001230529862329e+02  9.9989366859890467e+01  1.0000684058331284e+02  9.9986177551448876e+01  9.9994345936560350e+01  9.9979756888612485e+01  9.9998288629481635e+01  1.0000216152995282e+02  1.0000051497597367e+02  1.0000455989877730e+02  1.0000225085907518e+02  9.9995631595700104e+01  9.9997854064658853e+01  9.9993139255824047e+01  9.9997361655722941e+01  1.0000517356436542e+02  1.0000232706698026e+02  1.0000218866596867e+02  9.9999480938910764e+01  1.0001131941243553e+02  9.9996738025911000e+01  9.9998536086972351e+01  9.9991635735567357e+01  9.9996053112497833e+01  9.9997839373140579e+01  9.9996455035128434e+01  9.9996721015437828e+01  9.9994859623297287e+01  9.9994603963928526e+01  9.9993390053951188e+01  9.9996763600710750e+01  9.9999597759763418e+01  9.9999716084159246e+01  9.9997985479104855e+01  1.0000030362485471e+02  1.0000207498372929e+02  1.0000130271734955e+02  1.0000246492255506e+02  9.9998758534582095e+01  9.9997426836920340e+01  1.0000003914950601e+02  9.9996314857916701e+01  1.0000296488494668e+02  1.0000432188415236e+02  9.9999159334187340e+01  9.9997541431515884e+01  9.9999792998432369e+01  9.9995364061995417e+01  9.9995426198702916e+01  1.0000430157582325e+02  9.9994528543815861e+01  9.9981821848157992e+01  1.0000077534645155e+02  9.9999891813598296e+01  9.9994775682775156e+01  9.9987872459159192e+01  1.0000015458452189e+02  9.9998932142472995e+01  9.9993856591271964e+01  1.0000739655607370e+02  9.9993893467024591e+01  9.9990564925191251e+01  1.0000512246973260e+02  9.9995552980512841e+01  1.0000437037739039e+02  9.9994517850761724e+01  9.9995157419068846e+01  9.9993519315874920e+01  9.9994522445600708e+01  9.9999602921990416e+01  1.0000002090481105e+02  9.9999493548968729e+01  1.0000025714944148e+02  9.9999683433865002e+01  9.9997185435808348e+01  9.9999761318808581e+01  9.9999546555613421e+01  1.0000008849467224e+02  1.0000085170383018e+02  1.0000322341068718e+02  9.9997808293332739e+01  1.0000283219395129e+02  9.9996763437351959e+01  9.9993748904302763e+01  9.9998012628032086e+01  9.9998374897284677e+01  9.9999279937683056e+01  9.9998710011079183e+01  9.9999283949584253e+01  9.9998683134120213e+01  9.9999461323893513e+01  1.0000067246401257e+02  9.9998026641900594e+01  9.9996904906957084e+01  1.0000714417991949e+02  1.0000133707953830e+02  9.9998477340144120e+01  9.9996403780211907e+01  1.0000284432491108e+02  9.9997567790871486e+01  9.9989919299471438e+01  9.9995662936287957e+01  1.0000043545309974e+02  9.9996243229745644e+01  9.9996460627546185e+01  9.9996234189197125e+01  9.9995824602518709e+01  9.9992606722035987e+01  9.9993281516487798e+01  9.9997771564321283e+01  9.9997380457468054e+01  9.9999216313971729e+01  1.0000196368977396e+02  9.9992953040331940e+01  9.9993172711347896e+01  9.9991154536812175e+01  9.9995461872899853e+01  1.0000275468825707e+02  1.0000668829997016e+02  9.9997262760112150e+01  9.9997213532899039e+01  1.0000810947843171e+02  1.0000561170821875e+02  1.0000205555052155e+02  9.9990193599199984e+01  9.9989825133990976e+01  9.9991373008173568e+01  9.9980776694964760e+01  9.9998782596178202e+01  9.9998108768018156e+01  9.9999103010190467e+01  9.9997530308000563e+01  9.9998864210515066e+01  9.9997349382837896e+01  9.9997527820970006e+01  1.0000198447048433e+02  9.9994125326542999e+01  9.9998008546638374e+01  9.9980705966252742e+01  9.9995153199671279e+01  9.9990898086646041e+01  1.0001786242722601e+02  9.9994032858542482e+01  1.0001918395302032e+02  9.9999279373787942e+01  9.9999998116618784e+01  1.0001401904903035e+02  9.9996176434365609e+01  9.9996838881629401e+01  1.0000115134865732e+02  1.0000057043800479e+02  9.9989440581664809e+01  1.0000212765335174e+02  9.9993636927253846e+01  9.9995055593411564e+01  9.9972833819047082e+01  9.9987769164805229e+01  9.9987656561370827e+01  9.9984258458512883e+01  9.9985952339048865e+01  9.9971884417815630e+01  9.9986750206054396e+01  9.9997905378114154e+01  9.9971927740885690e+01  1.0000729255216950e+02  9.9992630044800180e+01  1.0000170004977120e+02  9.9995568353023927e+01  9.9998325591167145e+01  9.9992912069473491e+01  9.9988207132000767e+01  9.9998107571551387e+01  1.0000355315787834e+02  9.9991865246363233e+01  9.9995012055339501e+01  9.9993167930022850e+01  9.9986541368331260e+01  9.9997488868881589e+01  9.9995628460440756e+01  9.9996565178584689e+01  9.9996731591724028e+01  1.0000216854048276e+02  9.9997441953488931e+01  9.9999866744193028e+01  9.9900418556265919e+01  9.9978702312846664e+01  1.0005497263196354e+02  9.9962320174420967e+01  9.9980463634377557e+01  9.9948690491915045e+01  9.9997861096411015e+01  1.0001236678220197e+02  9.9979196387083022e+01  9.9998015940088067e+01  9.9997535765549003e+01  9.9996008569051199e+01  1.0000154593049767e+02  9.9999904944779715e+01  1.0000404839656741e+02  1.0000337516562169e+02  9.9945208221471191e+01  1.0001026443448410e+02  1.0002526397242737e+02  1.0004130542339972e+02  9.9957509576410104e+01  9.9966206916359340e+01  9.9981730243441135e+01  9.9997122075171575e+01  9.9994635657927532e+01  9.9997907779547774e+01  9.9996739417713343e+01  9.9995807685223070e+01  9.9994458582307047e+01  9.9992994917201983e+01  9.9997192352834034e+01  9.9993203008881352e+01  9.9994117801120794e+01  1.0000131142143493e+02  9.9996987009121241e+01  9.9995019024672871e+01  9.9997322572460519e+01  9.9996012932584620e+01  9.9999805805993446e+01  9.9998555207689506e+01  1.0018532056544785e+02  9.9967931889672982e+01  9.9870756635801712e+01  9.9961849972597108e+01  1.0004424506500001e+02  9.9971900235184108e+01  1.0000820377710933e+02  9.9967199276580445e+01  9.9968237102978705e+01  1.0000035205121013e+02  1.0001406809009156e+02  9.9937709260982544e+01  9.9950120702469832e+01  9.9959229395827890e+01  9.9937486933678102e+01  9.9952109010848645e+01  9.9982175757722274e+01  9.9971596592911084e+01  9.9943606893345631e+01  9.9967142981349539e+01  9.9997266339847229e+01  9.9984710915911037e+01  9.9969135189544915e+01  9.9971179577020848e+01  1.0002797227958717e+02  9.9987076370550426e+01  9.9972957378232181e+01  9.9992345269403600e+01  9.9991754601211738e+01  9.9993309521116430e+01  9.9992883282059665e+01  9.9997485200508379e+01  9.9992338380266673e+01  9.9997352506349614e+01  9.9998473869959270e+01  9.9997953240896095e+01  9.9991568750459649e+01  1.0000314738085578e+02  1.0000067959030964e+02  1.0000180378568477e+02  9.9998964819314949e+01  1.0000158288155228e+02  1.0001023983312817e+02  1.0000081447303073e+02  1.0000394956875816e+02  9.9998419398457273e+01  1.0000168866605212e+02  9.9990081592118884e+01  9.9996765526870092e+01  9.9995516462192484e+01  9.9996806005237246e+01  1.0000109122870616e+02  9.9999515295335826e+01  9.9995074756200324e+01  9.9999398999550536e+01  1.0003061152043659e+02  1.0000031785945603e+02  1.0002650328286840e+02  9.9968556863039026e+01  9.9937490564450002e+01  9.9978246692412824e+01  9.9996115306267697e+01  9.9997613846094438e+01  1.0000331535561624e+02  9.9990814186292653e+01  1.0003890496609964e+02  1.0000598637963286e+02  1.0000024607828163e+02  1.0000894257430620e+02  9.9995879112153361e+01  9.9996267544117771e+01  1.0000365877207190e+02  9.9969552502867671e+01  9.9994237930198466e+01  1.0000990091179153e+02  9.9991414984389380e+01  9.9967160790842286e+01  9.9994065840809640e+01  9.9993620478338173e+01  9.9994999662891132e+01  9.9999696351975516e+01  1.0000065799591628e+02  9.9999201756200321e+01  1.0000009904680088e+02  1.0000019432540979e