<?xml version="1.0"?>
<VTKFile type="UnstructuredGrid"  version="0.1"  >
<UnstructuredGrid>
<Piece  NumberOfPoints="7025" NumberOfCells="32907">
<Points>
<DataArray  type="Float64"  NumberOfComponents="3"  format="ascii">22.00424957275391 23.06645011901855 1.629516005516052  22.65877554005796 22.99007173043168 1.884523101311945  22.29286003112793 22.71484470367432 1.370597004890442  22.15592002868652 22.5254602432251 1.787422001361847  22.30759048461914 21.98447036743164 1.945327997207642  22.81044599599058 22.44908185463822 2.042429097157739  22.44453048706055 22.17385482788086 1.528503000736237  22.58147048950195 22.36323928833008 1.111678004264832  22.94738599843198 22.63846631508744 1.625604100686334  23.31330150736201 22.91369334184481 2.139530197107837  24.7801015332148 24.98444564082758 1.343380579195454  25.65938950409079 25.20393960070879 1.987058281637318  25.20822107965244 25.42824785924789 1.607093048561024  25.35205536726119 25.00909532358045 1.158272105287574  25.23126995765315 24.76013738228847 1.723345812271749  25.92400920130757 25.03374500633333 0.9731636313796943  25.78017491369882 25.45289754200077 1.421984574653143  25.80322379169954 24.78478706504135 1.538237338363869  25.6824383820915 24.53582912374936 2.103311045348044  25.63634062609007 25.87205007766821 1.870805517926593  22.03368949890137 20.76296043395996 3.771560907363892  22.26534769441647 21.43464559249564 3.570574016195839  22.36247751619381 21.05947107009574 3.74375447712571  22.1642894744873 21.00529003143311 3.272692918777466  21.93655967712402 21.13813495635986 3.598380446434021  21.83942985534668 21.51330947875977 3.42519998550415  22.49307749177975 21.30180066756888 3.244886488539284  22.06715965270996 21.38046455383301 3.099512457847595  22.29488945007324 21.24761962890625 2.77382493019104  22.69126553348626 21.35598170623152 3.715948046887529  27.33549256464362 24.85074460373716 0.8144838596683323  26.83313141345874 25.29392791353913 1.470046350816044  27.19649813832932 24.80730229060703 1.294937387782388  27.29838107413403 25.72650243713071 1.248656109173794  26.97212583977304 25.33737022666926 0.9895928227019883  26.60875911490247 25.82399584960136 1.164701785735645  27.05750371201502 24.7638599774769 1.775390915896444  27.86607933044434 26.04891014099121 0.1048400029540062  27.6635743228415 25.66407662698286 0.526328611502147  27.6454440204123 26.06491643258589 0.526328611502147  27.92704118190497 25.83895958282564 0.7187252177829745  27.42480871038026 26.08092272418056 0.947817220050288  26.12944984436035 25.39360046386719 0.1048400029540062  25.85131087811463 25.62187702896105 0.866357367391706  25.95403119964102 25.80180475772798 0.4321955531788619  26.36910447963141 25.60879815673427 0.6347708943448254  26.02672952283396 25.21367273510026 0.5390018171668503  26.26638415810502 25.42887042796734 1.068932708557669  26.19368583491207 26.01700245059506 0.9621264445696811  25.77861255492169 26.21000905158877 0.7595511034037177  27.06695938110352 27.0390796661377 1.693264007568359  27.75613890566621 26.59141141244428 1.183347589650846  27.77285480499268 26.70038986206055 1.672357976436615  27.57721424102783 27.07048988342285 1.556070983409882  27.26259994506836 26.66897964477539 1.809551000595093  27.24588404574189 26.56000119515913 1.320540613809324  27.4582405090332 26.29887962341309 1.925837993621826  27.44152460970673 26.18990117379682 1.436827606836057  28.08746910095215 27.10190010070801 1.418877959251404  27.39698028564453 27.46944046020508 0.9195889830589294  27.9265193939209 26.97701549530029 0.761858981102705  27.58127498626709 27.16078567504883 0.5122144930064678  27.86317539215088 27.42128562927246 0.8270889818668365  27.74222469329834 27.28567028045654 1.169233471155167  28.32937049865723 27.37313079833984 0.7345889806747437  28.04747009277344 27.11263084411621 0.4197144918143749  27.76556968688965 26.85213088989258 0.1048400029540062  24.68594932556152 24.63105010986328 0.1048400029540062  24.8912931556549 24.36001759968212 0.4979945208436842  24.98880958557129 24.36345958709717 0.1048400029540062  24.5953197479248 24.30453968048096 0.1048400029540062  24.50469017028809 23.97802925109863 0.1048400029540062  24.80066357801818 24.03350717029979 0.4979945208436842  24.89818000793457 24.03694915771484 0.1048400029540062  25.29166984558105 24.09586906433105 0.1048400029540062  25.19415341566466 24.092427076916 0.4979945208436842  25.09663698574827 24.08898508950095 0.8911490387333622  26.85574913024902 26.94500923156738 0.1048400029540062  27.24651184659884 26.78000728036881 0.382921502278764  26.91478195768282 26.51524726297379 0.382921502278764  26.79160156827852 26.82644645120621 0.382921502278764  26.97892951965332 26.63381004333496 0.1048400029540062  27.31065940856934 26.89857006072998 0.1048400029540062  27.10210990905762 26.32261085510254 0.1048400029540062  27.43383979797363 26.58737087249756 0.1048400029540062  26.72745400630802 26.70788367084504 0.6610030016035218  23.90811920166016 21.99844932556152 4.139681816101074  23.52930191164846 22.4545874176043 3.336573883864719  23.94530837039778 22.06888253868271 3.566009405311028  23.41611126070852 22.07781167602715 3.689496800277072  24.0213098526001 22.37522506713867 3.786758899688721  24.13450050354004 22.75200080871582 3.433835983276367  24.05849902133772 22.44565828025986 3.213086488898674  22.92410331975688 22.15717402649279 3.23931178445307  23.45330042944614 22.14824488914834 3.115824389487026  23.98249753913541 22.1393157518039 2.992336994520981  25.37555017430565 23.02409334568385 1.788430093101289  24.84151000789606 23.9547774205508 1.563156343196803  24.98096660217475 23.42233154864225 2.011796870380766  25.52899427819857 23.77996123471661 1.945870569224666  25.23609358002696 23.5565392175924 1.339789565917326  25.38953768391989 24.31240710662516 1.497230042040703  25.13441070606768 24.17819943767501 2.169237346504143  24.58638303004386 23.82056975160066 2.235163647660243  26.12479019165039 26.24221992492676 0.1048400029540062  26.83678665738985 26.19545642282486 0.382921502278764  26.42612209897921 26.4750517978859 0.382921502278764  26.613450050354 26.28241539001465 0.1048400029540062  26.53545475006104 25.96262454986572 0.1048400029540062  26.94611930847168 25.68302917480469 0.1048400029540062  27.02411460876465 26.00282001495361 0.1048400029540062  26.02297973632812 23.51478958129883 0.1048400029540062  25.78144484924817 23.90206992981278 1.178891907776059  25.5598083610382 23.80188733539989 0.4979945208436842  25.69926495531688 23.26944146349134 0.9466350480276475  26.2446162245381 23.61497217571171 0.7857373898863809  25.92090144352686 23.36962405790423 1.627532434960022  26.46625271274807 23.7151547701246 1.466634776818756  27.4108944980124 26.77518159219282 0.9337031015546087  26.89720669370577 26.87348166849137 1.177133504585941  27.23196983337402 27.25426006317139 1.306426495313644  27.06221714597628 27.08866206552506 0.7902959923312256  27.07613135834414 26.3944031975128 0.8044101108269048  23.72390100545103 22.83284707528031 2.786683090192102  23.11870241355945 22.53543368416879 2.689420990780453  23.64789952324871 22.52650454682436 2.565933595814409  27.18546400942597 25.88197594949262 0.526328611502147  27.40609931945801 25.86596965789795 0.1048400029540062  27.26345930971894 26.20176678964155 0.526328611502147  27.48409461975098 26.18576049804688 0.1048400029540062  26.07955932617188 23.91872024536133 2.968257904052734  25.88099885413169 24.22727468455535 2.535784474700389  26.27290601945997 23.81693750774296 2.217446340435745  25.72755475023876 23.47140679552259 2.378343998577011  26.07434554741979 24.12549194693698 1.7849729110834  24.41413015926009 24.45479472382572 0.3677717383108083  24.2917613737917 24.91374094463063 0.486719887694  24.73302542938816 24.80774787534543 0.7241102910747301  24.46120626308673 24.63149248930787 0.9870420264315323  24.33883747761834 25.09043871011278 1.105990175814724  23.89757342202187 25.19643177939798 0.8685997724339938  24.01994220749027 24.73748555859307 0.7496516230508021  24.14231099295866 24.27853933778816 0.6307034736676105  23.83625984191895 24.69317054748535 0.1048400029540062  23.9892854174388 24.48585494263676 0.3677717383108083  24.17047500610352 24.33559989929199 0.1048400029540062  23.80589008331299 24.10727500915527 0.1048400029540062  23.77552032470703 23.5213794708252 0.1048400029540062  23.95891565883284 23.89995940430668 0.3677717383108083  24.14010524749756 23.74970436096191 0.1048400029540062  24.32350058162337 24.1282842944434 0.3677717383108083  25.70747659050588 26.04102956462849 1.315178310665155  26.12254987049626 25.84802296363478 1.517753651831119  21.83436965942383 22.27280044555664 2.683378934860229  22.61584690218801 22.07082219696221 2.592319890830356  22.37923648959035 22.21498723602471 2.96134535965665  22.06462955474854 21.76021003723145 2.728601932525635  22.07098007202148 22.12863540649414 2.314353466033936  22.60949638491506 21.70239682769952 3.006568357322055  22.30123996734619 21.61604499816895 2.359576463699341  23.62618527300069 24.16984282805492 1.282694877585617  23.88424813297967 24.22419108292154 0.9566991756266136  23.76187934751128 24.68313730372645 1.075647325009805  24.20314340310775 24.57714423444125 1.313037728390535  28.02930986925302 26.23311762945305 0.8986295485256629  27.59518919863496 26.46652680703657 0.526328611502147  28.19969035750772 26.61872171230906 0.477140939977522  26.25303328061485 26.45894636121691 0.7102770525036197  25.95170137328604 26.22611448825776 0.4321955531788619  26.36677465327643 26.03310788726406 0.6347708943448254  26.66810656060525 26.2659397602232 0.9128523936695832  22.91045951843262 24.22871017456055 0.1048400029540062  23.52638525569564 24.25362475617435 0.3677717383108083  23.26832239571666 24.19927650130774 0.6937674402698114  23.34298992156982 23.87504482269287 0.1048400029540062  23.70085279885386 23.84561114944006 0.6937674402698114  24.51929298585194 23.18588187066042 2.298637240124949  24.26051906127
[...]
<PointData  Scalars="p_O2"> 
<DataArray  type="Float64"  Name="p_O2"  format="ascii">9.9998386743511929e+01  1.0000683083559161e+02  1.0000873422479135e+02  9.9995767673041712e+01  1.0002363881345003e+02  9.9997629191782835e+01  9.9992849372314225e+01  1.0000985651283480e+02  1.0000459508675367e+02  9.9999045419160424e+01  1.0000122315221948e+02  9.9994749101993918e+01  1.0000099909175839e+02  9.9998633225047953e+01  9.9997713615311866e+01  1.0000052497254681e+02  1.0000022350168224e+02  9.9995396708562041e+01  9.9988881454379154e+01  9.9986308144129083e+01  1.0000223055055234e+02  1.0000816153887203e+02  1.0000113763288410e+02  1.0000145671436638e+02  9.9989685511619399e+01  9.9968523094162592e+01  1.0000502431797739e+02  9.9992301368463913e+01  9.9993276820385077e+01  9.9992081314023054e+01  1.0000135369141134e+02  9.9982981172617741e+01  1.0000052365128431e+02  9.9995342257021093e+01  9.9985976672319694e+01  1.0000654465274533e+02  9.9979368392978557e+01  1.0001108393780157e+02  9.9998246636186494e+01  9.9981160635027933e+01  9.9989684716935187e+01  9.9966766330395842e+01  1.0000202100395141e+02  9.9997787085976000e+01  1.0000145802952967e+02  9.9995568945030954e+01  9.9997434749281069e+01  9.9997944404030974e+01  1.0001251916408884e+02  1.0000042927266378e+02  9.9945383520318956e+01  9.9892523107013943e+01  9.9893047877419704e+01  9.9997887299842432e+01  1.0020185740417008e+02  1.0003408338151327e+02  1.0005185716551193e+02  9.9993143771886650e+01  9.9984113946830249e+01  1.0010722582911687e+02  9.9992687812951033e+01  9.9903725821139957e+01  9.9462407264286512e+01  9.9960411066492824e+01  1.0000206475499320e+02  9.9987318030577299e+01  1.0012774350187793e+02  1.0000028430151778e+02  1.0000015920570715e+02  9.9999152942797352e+01  9.9999357279671500e+01  1.0000288659383030e+02  9.9999772164654772e+01  9.9999581894378110e+01  9.9999084846117384e+01  9.9999475149647580e+01  9.9998344059987303e+01  1.0003213272596452e+02  1.0005598116780328e+02  9.9980201253534759e+01  1.0001835950278929e+02  1.0000160764122484e+02  1.0033676552694619e+02  9.9960105765768859e+01  9.9945058698555115e+01  9.9986370373281702e+01  9.9995151623960354e+01  1.0000184822800226e+02  1.0000012441493764e+02  1.0000896418357614e+02  9.9975387554437447e+01  1.0000683215081457e+02  1.0000411432043492e+02  9.9994663899123481e+01  9.9993964644024061e+01  1.0000035737025507e+02  9.9996963874703226e+01  1.0000445581804537e+02  9.9994702670912829e+01  1.0000313098661633e+02  9.9996851681857038e+01  9.9996250284079338e+01  9.9995840646836356e+01  1.0000651500573819e+02  1.0000385214799235e+02  1.0000602976882806e+02  1.0000365691874646e+02  1.0000398722391901e+02  9.9995121010760045e+01  9.9997725145004367e+01  1.0000134567275698e+02  1.0000315561362864e+02  1.0000704026128673e+02  9.9997691167060978e+01  9.9996330421440561e+01  9.9997686239324977e+01  9.9997354942006012e+01  9.9997789038595812e+01  1.0010124302065560e+02  9.9993135153457004e+01  1.0029909430895958e+02  9.9991499592876792e+01  9.9954165103664081e+01  1.0000158448428905e+02  9.9992646448004990e+01  1.0000742261047974e+02  9.9991557345028056e+01  1.0000113965887860e+02  9.9980263427630135e+01  9.9993339799686169e+01  9.9994670449202857e+01  9.9994325224498922e+01  1.0000037807097488e+02  1.0001596474849218e+02  1.0000041249968204e+02  1.0000075128160179e+02  9.9998641905215592e+01  9.9999786492816312e+01  1.0000107335893020e+02  9.9999477369046005e+01  9.9999599278185116e+01  9.9999383550174272e+01  1.0000583201658554e+02  1.0000024657086216e+02  1.0000436471465767e+02  1.0000062531698403e+02  9.9993392822405653e+01  9.9966545262493725e+01  9.9977264085964990e+01  9.9981862972201966e+01  1.0000076926206212e+02  9.9999432689713259e+01  1.0001228057415818e+02  9.9988963580027573e+01  1.0000496860452866e+02  1.0000358078337283e+02  1.0000250007520440e+02  1.0001133265737576e+02  9.9996356799563429e+01  9.9996219808178424e+01  1.0000880401164665e+02  1.0000857989929102e+02  1.0000491056411849e+02  9.9994596372336119e+01  1.0003096411999840e+02  9.9941407623917129e+01  1.0001169494758622e+02  9.9990336662605401e+01  9.9999238106657586e+01  9.9996500952354339e+01  1.0001655144181939e+02  9.9936373373026242e+01  9.9999219442600662e+01  9.9980435241538430e+01  1.0000979605566110e+02  9.9990475728694520e+01  1.0000199608817563e+02  1.0000689367024276e+02  9.9993962777997282e+01  9.9997335303627025e+01  1.0000048521847695e+02  9.9998286475897359e+01  1.0000009078357991e+02  1.0000252982219541e+02  9.9995897006463750e+01  1.0000050404188418e+02  1.0000054979541511e+02  9.9998462962837650e+01  1.0000026739528310e+02  1.0001176503161378e+02  1.0003824760744244e+02  9.9920115604436276e+01  9.9939880314076220e+01  1.0001450559708148e+02  1.0002169260342428e+02  1.0001064004578348e+02  1.0000304054957705e+02  1.0000114152116336e+02  1.0000387048217637e+02  9.9999680476920958e+01  9.9998637109438135e+01  1.0000085953600232e+02  9.9998207460346833e+01  1.0000336988601335e+02  9.9995345012065698e+01  1.0001116437410680e+02  1.0002287300111094e+02  1.0000158974114477e+02  9.9978992626683635e+01  9.9986042145158876e+01  1.0003014776455979e+02  1.0000417696859245e+02  9.9993625452521968e+01  9.9989281590459754e+01  1.0000500223897713e+02  1.0000013609953409e+02  9.9988107930425059e+01  1.0000509702277955e+02  9.9999130409854530e+01  9.9993503236454970e+01  1.0000114338626976e+02  9.9999713708440183e+01  9.9999506576268359e+01  9.9999169568123648e+01  1.0000106917029696e+02  9.9997777766828023e+01  9.9993902126143098e+01  9.9996455297110941e+01  9.9998742170523755e+01  1.0000384682498542e+02  9.9999541521404112e+01  9.9995081400470738e+01  9.9996851321248570e+01  9.9999642427250379e+01  1.0000546179212465e+02  9.9999013533444668e+01  1.0000021933685845e+02  9.9987507787047164e+01  1.0000747507513623e+02  1.0001075473922621e+02  1.0000415611394124e+02  1.0001799005644571e+02  1.0001961240509948e+02  9.9992242881361960e+01  1.0002225071556025e+02  1.0000342144571779e+02  9.9990434593819771e+01  9.9875601347121204e+01  9.9999006221598975e+01  9.9998136331374369e+01  1.0000039861248158e+02  1.0000101672556634e+02  1.0000063903548177e+02  1.0000064704925693e+02  1.0000040120596034e+02  1.0000059419499709e+02  1.0000058454544350e+02  1.0000855778355970e+02  1.0000207303403307e+02  1.0000166881357060e+02  9.9998241954601028e+01  9.9999082282908930e+01  9.9986020964157959e+01  1.0001338486165203e+02  9.9986569074924276e+01  1.0000513303773219e+02  1.0001692635216084e+02  1.0000647342972067e+02  9.9979507557455037e+01  9.9994958577508044e+01  1.0001497689227764e+02  9.9991568815413714e+01  9.9987218814562723e+01  1.0000692367944995e+02  1.0000144257154696e+02  1.0000000473425091e+02  9.9996678566066876e+01  9.9997740718716713e+01  1.0000294957891927e+02  1.0000002316169767e+02  9.9999806291412028e+01  9.9996020763552963e+01  9.9960417709059072e+01  1.0000176171501391e+02  9.9985744313543762e+01  9.9987292164442479e+01  1.0000559163067147e+02  1.0000344068900520e+02  9.9997302582171102e+01  9.9998412266271572e+01  1.0000170931143199e+02  9.9993658778904702e+01  1.0000016568237152e+02  9.9998526977420639e+01  9.9830540566051297e+01  9.9986302736807872e+01  1.0008747106665707e+02  9.9966190807399585e+01  1.0003782534440674e+02  9.9838226219144275e+01  1.0004933377508125e+02  1.0000058604568547e+02  1.0001134460149332e+02  1.0000839772509686e+02  9.9990413434837606e+01  1.0001728594079020e+02  9.9999042347112592e+01  9.9998455719516201e+01  9.9995336216215009e+01  1.0000332280129783e+02  1.0001021216538702e+02  9.9987462228455840e+01  1.0000411357278790e+02  9.9994355652992752e+01  9.9979520821296376e+01  1.0003303332922212e+02  9.9946284763209704e+01  1.0003051362257639e+02  9.9983379167484941e+01  1.0004285788910920e+02  9.9991831060518507e+01  9.9932780117450264e+01  9.9997468671918682e+01  9.9999485937169496e+01  9.9999630654441390e+01  1.0000048847102904e+02  9.9997950589310463e+01  1.0002603465134342e+02  1.0000429278450090e+02  9.9987543931878989e+01  1.0000946541585415e+02  9.9775165677768967e+01  9.9995233595494426e+01  9.9998941262732345e+01  9.9988311040092597e+01  9.9968194139035731e+01  1.0005459611990631e+02  1.0000321903071321e+02  1.0000042479539296e+02  1.0000021549689448e+02  9.9999002555891252e+01  9.9999392110750378e+01  1.0000306614258591e+02  1.0000026154976939e+02  9.9997029639587353e+01  1.0003206722157704e+02  9.9981472810272649e+01  9.9985581829201749e+01  9.9954638888848507e+01  9.9940403754945862e+01  9.9956093854541308e+01  9.9992914164227670e+01  9.9988353533443743e+01  9.9997697453276743e+01  1.0000209224992665e+02  1.0000043674835550e+02  9.9994026759562317e+01  9.9983554225768074e+01  9.9985148301387085e+01  1.0000614677701303e+02  9.9987091434547168e+01  1.0003302565824973e+02  1.0000717433554287e+02  9.9999244780619918e+01  9.9997055058474118e+01  9.9994830220146525e+01  9.9987418194498133e+01  9.9994367693570439e+01  1.0000641426655095e+02  9.9996785330155632e+01  1.0000592278585873e+02  1.0000549827675266e+02  1.0001353433006058e+02  1.0004681757243688e+02  1.0006210743391141e+02  1.0003105255887833e+02  9.9988679925348066e+01  1.0001967791608072e+02  9.9984934821043296e+01  9.9992256785763630e+01  1.0001362499538784e+02  1.0000003820961290e+02  1.0000394870557818e+02  1.0000027936644881e+02  9.9997130407726360e+01  9.9999263722738519e+01  1.0000512873849456e+02  1.0001509652023528e+02  1.0000776747444532e+02  1.0000157688465906e+02  9.9999559442117075e+01  9.9965416230095897e+01  1.0000706660346926e+02  1.0000090637975681e+02  9.9997570314043642e+01  1.0000308089942054e+02  9.9988135657795340e+01  1.0000954127371381e+02  1.0000082581492984e+02  1.0000180515190347e+02  1.0003154020554777e+02  9.9994612462370640e+01  9.9995087462827343e+01  9.9997903103235359e+01  9.9999157293451248e+01  9.9995893548697069e+01  9.9995711497143532e+01  9.9998915668408969e+01  1.0005242946811056e+02  9.9971954192439213e+01  1.0000028562105133e+02  1.0000356985243540e+02  1.0000354279548580e+02  1.0000072491622819e+02  1.0000404782784088e+02  9.9971214480075787e+01  9.9995072877298810e+01  9.9995034097536291e+01  9.9995632048704593e+01  9.9999113538722824e+01  1.0000929452257284e+02  9.9990208318010275e+01  9.9986905287613666e+01  1.0000916957575332e+02  1.0000692498938719e+02  1.0000828140298326e+02  1.0000537609752135e+02  9.9992528276644450e+01  9.9999017159087117e+01  9.9994102064473324e+01  9.9995700592151024e+01  1.0000187480555095e+02  1.0000151567593645e+02  9.9996545918782701e+01  9.9996075916206621e+01  1.0000365862249431e+02  9.9995166586099074e+01  9.9995566346648857e+01  1.0000189011960700e+02  9.9996643595444070e+01  9.9993102200601427e+01  9.9999144689507844e+01  1.0000234500095284e+02  9.9995440616644672e+01  9.9997951554651820e+01  9.9998616321993339e+01  1.0000043133746020e+02  1.0000255905255936e+02  9.9999819812606233e+01  9.9992681517535345e+01  1.0000409207799356e+02  9.9999934257992976e+01  1.0000243717503862e+02  1.0000038750824230e+02  1.0000094934100939e+02  1.0000462567257539e+02  9.9996546634214113e+01  9.9999449021209088e+01  9.9995012565583551e+01  1.0000649598176420e+02  1.0000058379160470e+02  9.9999697292449753e+01  1.0000073652340136e+02  9.9999654031144829e+01  1.0000197398668270e+02  9.9998401131088215e+01  9.9996705743269160e+01  9.9998328314848735e+01  9.9993575505611673e+01  9.9997799711579020e+01  9.9997788298539831e+01  1.0000442872837957e+02  1.0000014380835439e+02  9.9999532930797230e+01  1.0000945975007545e+02  1.0000951645507857e+02  9.9999351758086405e+01  9.9994740723211493e+01  1.0000593415382779e+02  9.9992308971806011e+01  9.9987748562434717e+01  9.9999873077567969e+01  1.0000088868617425e+02  9.9998968250624770e+01  1.0000261100296969e+02  9.9984230033647947e+01  1.0000383131761500e+02  1.0000638685622330e+02  1.0001284385532092e+02  9.9984908217768904e+01  9.9984883985442991e+01  1.0000105106226799e+02  1.0000267295404109e+02  9.9999431918675413e+01  9.9999017556264803e+01  1.0000243149415402e+02  9.9995852638810334e+01  9.9998899225427266e+01  9.9993490963277111e+01  1.0000198463265566e+02  9.9999133990971259e+01  9.9999306141343141e+01  1.0000159404832394e+02  1.0000078893010789e+02  9.9997876384530997e+01  1.0000108733797779e+02  1.0000171719321989e+02  9.9998814258986812e+01  1.0000155081091083e+02  9.9999636724973911e+01  1.0000038892446354e+02  1.0001748381297784e+02  1.0000422638731958e+02  1.0000546135509585e+02  9.9997797838898848e+01  9.9996294458598840e+01  9.9997639883075806e+01  9.9995859183456503e+01  9.9998324502658789e+01  9.9997841483928056e+01  9.9999482691782859e+01  1.0000418536057046e+02  9.9998595083373445e+01  9.9996761285238250e+01  1.0000192401585856e+02  9.9990965288902387e+01  1.0000298850806583e+02  9.9997158224389054e+01  1.0000523526435761e+02  9.9997466874041166e+01  1.0001859185530192e+02  1.0000455616327335e+02  9.9995646588973869e+01  9.9997736097255185e+01  9.9996874052658470e+01  1.0000174753947464e+02  1.0000299893750152e+02  1.0000182203547686e+02  1.0000394199883648e+02  1.0000121761942059e+02  1.0000671156676061e+02  9.9998413037951778e+01  1.0000399360899701e+02  9.9999548648897274e+01  1.0000921764696869e+02  9.9982929589925391e+01  1.0000250688678109e+02  1.0000165917144398e+02  9.9997428704521894e+01  9.9998790626000726e+01  9.9999683364713064e+01  1.0000775531561385e+02  1.0000304429212856e+02  1.0000696168079098e+02  1.0000567112004821e+02  9.9999070425837090e+01  1.0000680352132518e+02  9.9995952970244019e+01  1.0000218947319796e+02  1.0000089232888949e+02  1.0000072567323856e+02  1.0000487536424424e+02  9.9999388196527349e+01  1.0000023754666297e+02  9.9999812433827046e+01  1.0000345291878473e+02  9.9999257974691972e+01  9.9997909999818887e+01  9.9996636912750290e+01  1.0000815095004702e+02  1.0000709266522504e+02  1.0001841110523311e+02  1.0000490335562574e+02  9.9968732647184424e+01  9.9995779143893898e+01  1.0001268695644001e+02  9.9997138865570889e+01  1.0001763577012980e+02  9.9929900394599997e+01  9.9955169815416923e+01  9.9963526897432033e+01  9.9973221525097415e+01  1.0001420786220990e+02  1.0001253248646725e+02  1.0003977297474405e+02  9.9989933514179626e+01  1.0000171067657000e+02  9.9999204772736405e+01  1.0000083219491265e+02  9.9998648631054792e+01  1.0000310579192858e+02  1.0000042891881688e+02  1.0000000687170511e+02  9.9999615945195188e+01  1.0000130280073523e+02  9.9999892210114155e+01  1.0000346709312382e+02  1.0000059613227560e+02  1.0000123405001119e+02  9.9992152838151711e+01  9.9994948385260741e+01  1.0000801674485282e+02  9.9997465910350243e+01  9.9994821363183377e+01  1.0001538074028201e+02  1.0000049178142835e+02  9.9995416468695481e+01  9.9999597376789893e+01  1.0000142277764323e+02  1.0000147785734114e+02  9.9998978203336506e+01  1.0000075046446035e+02  9.9997860075982587e+01  9.9999958242583105e+01  1.0001463350542653e+02  1.0000274545634734e+02  9.9999802906132942e+01  9.9994262756381644e+01  1.0001462243410936e+02  1.0000957289546906e+02  9.9988612158322397e+01  9.9993032785059455e+01  9.9998925186057861e+01  1.0001112187172674e+02  1.0000683872695487e+02  1.0000573987153535e+02  9.9996390206519251e+01  9.9998534448649139e+01  1.0000009801962744e+02  1.0000716418613439e+02  1.0000716742369357e+02  1.0000367095079015e+02  9.9997214325037262e+01  1.0000586747785002e+02  1.0000509785023594e+02  9.9999406437122744e+01  1.0000194465390945e+02  9.9985079952694306e+01  9.9985588505507806e+01  1.0000593630855020e+02  1.0001634842238209e+02  1.0000245959187878e+02  1.0001334222267667e+02  9.9999318644461496e+01  9.9998429005741855e+01  1.0000515962620099e+02  1.0000604494115572e+02  1.0000162555564464e+02  1.0000127938907869e+02  9.9999857628876086e+01  1.0000308355074418e+02  9.9999531405532736e+01  9.9998492538247760e+01  1.0000502095048323e+02  1.0000521754077602e+02  9.9997436752098849e+01  1.0000068566963678e+02  1.0000637847075144e+02  1.0000178901483719e+02  9.9998222775287175e+01  9.9995493431674319e+01  9.9990416964466718e+01  1.0001346618301007e+02  9.9966135086777697e+01  9.9996109336194579e+01  9.9993547055098048e+01  9.9996028969215786e+01  1.0002329560557980e+02  1.0000003298300473e+02  1.0000107137603597e+02  9.9998651100075122e+01  1.0000833334846280e+02  9.9998571176840031e+01  1.0000118849739076e+02  1.0000188091000039e+02  9.9997837402636549e+01  9.9993567827753324e+01  1.0000110666443014e+02  9.9993249453295590e+01  1.0000777372047703e+02  1.0000675583924512e+02  1.0000564053738994e+02  1.0000500487908859e+02  1.0000223991705371e+02  9.9998475908313509e+01  9.9996059721686535e+01  9.9997674649433151e+01  9.9990342575620801e+01  1.0001565045057886e+02  1.0000333314702880e+02  9.9981464315154696e+01  1.0000590784404656e+02  1.0000100387456736e+02  1.0000546861329906e+02  9.9995726531205634e+01  9.9999421200398388e+01  1.0000000686612449e+02  9.9999906221003457e+01  1.0000275920152568e+02  9.9999802226882778e+01  9.9998254518402305e+01  1.0001687310974161e+02  9.9997939195738084e+01  1.0001040086181315e+02  1.0000306257446182e+02  1.0000009597687216e+02  1.0005467711984825e+02  9.9963659259194259e+01  1.0000455425558914e+02  1.0000794706955881e+02  9.9990555861296883e+01  1.0000114865250066e+02  9.9995602204388632e+01  9.9996482695573746e+01  9.9988362191979959e+01  1.0000230009612554e+02  1.0002762080569782e+02  1.0000049505271322e+02  9.9990659733762186e+01  1.0002330817882913e+02  9.9994723093059392e+01  9.9989532882128941e+01  9.9994470475879226e+01  9.9984749940263711e+01  1.0000341644754350e+02  9.9995877161885190e+01  9.9990830522852363e+01  9.9996911621725559e+01  9.9991809827735807e+01  1.0001376751685325e+02  9.9978349138119327e+01  9.9999901297116139e+01  1.0000267554499376e+02  9.9997625480631029e+01  1.0000244224177456e+02  9.9993798644854408e+01  1.0000155411327520e+02  1.0000300192307451e+02  1.0000183654065859e+02  9.9996938320822139e+01  9.9989856237000126e+01  9.9996865037176022e+01  1.0000645671119231e+02  9.9988186520864744e+01  9.9991435364140116e+01  9.9999021589592928e+01  1.0000237332550856e+02  1.0000249944404030e+02  1.0000106901279173e+02  1.0000808261534405e+02  9.9999260601214331e+01  1.0001873484091206e+02  1.0000470821685423e+02  1.0001502068759184e+02  1.0000628036441647e+02  9.9996970866290610e+01  9.9993963946644485e+01  9.9999819895445711e+01  9.9998835587476961e+01  1.0000308795576733e+02  9.9996648905220056e+01  1.0000110391336372e+02  1.0000036633446184e+02  1.0000200750662773e+02  9.9998735579207391e+01  9.9999499862151481e+01  1.0001103695994844e+02  1.0000432406835274e+02  9.9988992345054768e+01  1.0003074220999774e+02  9.9989503489472710e+01  9.9999951045571834e+01  9.9995625630651929e+01  1.0000011045942330e+02  1.0001199999467470e+02  1.0000357951166504e+02  1.0001546939791088e+02  1.0000214510288113e+02  1.0001352295128017e+02  9.9986071348796230e+01  9.9966244447078665e+01  1.0001416991612361e+02  1.0004984350658464e+02  9.9999668499432659e+01  1.0000296986058099e+02  1.0000055164870356e+02  9.9997904624194916e+01  9.9997695903498666e+01  9.9984425143527730e+01  9.9993278900830063e+01  1.0001240435918305e+02  1.0002406690343477e+02  9.9989321431463551e+01  9.9996287304400212e+01  1.0000445530140141e+02  1.0000392743113261e+02  1.0000282362059984e+02  1.0000386451236831e+02  9.9990104318374478e+01  9.9989271344216519e+01  9.9992694637319232e+01  1.0000427502729667e+02  1.0001471149560746e+02  9.9981674757768175e+01  1.0000410106701653e+02  1.0000207275935651e+02  9.9996240668958279e+01  9.9999445082748551e+01  1.0000287759148773e+02  1.0000729211979522e+02  9.9996981473293872e+01  1.0000192329707488e+02  9.9997089911997293e+01  9.9995312985212422e+01  9.9999350879770333e+01  9.9993809133904577e+01  1.0000348922980305e+02  1.0001277295799153e+02  1.0002483324700817e+02  9.9975665120011314e+01  9.9999473352678294e+01  9.9998456482563853e+01  9.9995989465199585e+01  1.0000047621972350e+02  9.9994200614182532e+01  9.9999373157389996e+01  9.9995970408814202e+01  1.0000753333329105e+02  1.0000069786945468e+02  1.0000195329393635e