<?xml version="1.0"?>
<VTKFile type="UnstructuredGrid"  version="0.1"  >
<UnstructuredGrid>
<Piece  NumberOfPoints="7186" NumberOfCells="33120">
<Points>
<DataArray  type="Float64"  NumberOfComponents="3"  format="ascii">14.86781024932861 1.799960017204285 0.1048400029540062  14.68855419517246 1.611536153485522 0.63815820139952  14.75564527511597 1.203536510467529 0.3807095102965832  14.52181529998779 1.532235026359558 0.1048400029540062  14.17582035064697 1.264510035514832 0.1048400029540062  14.34255924583164 1.343811162640795 0.63815820139952  14.40965032577515 0.9358115196228027 0.3807095102965832  14.64348030090332 0.6071130037307739 0.6565790176391602  14.57638922095981 1.015112646748766 0.9140277087420969  14.5092981410163 1.423112289766759 1.171476399845034  10.6318998336792 0.09558500349521637 7.097518920898438  11.23941788559236 0.3958871559650062 6.85500391279093  10.97514281158724 0.3958871559650062 7.159677822931921  11.13518476486206 0.09558500349521637 7.171063423156738  10.89617490768433 0.09558500349521637 6.792845010757446  11.63846969604492 0.09558500349521637 7.244607925415039  11.4784277427701 0.3958871559650062 7.233222325190222  11.39945983886719 0.09558500349521637 6.866389513015747  11.16044998168945 0.09558500349521637 6.488171100616455  11.31838578949527 0.6961893084347961 7.221836724965405  11.82726001739502 0.09558500349521637 4.071989059448242  12.03415395331481 0.9594808965595624 3.809891350460377  12.03452371749095 0.4503460645897467 3.64271747072099  11.65966012397694 0.6047198354650321 3.874496954080207  12.20175384673289 0.4503460645897467 4.007383455828412  11.66002988815308 0.09558500349521637 3.70732307434082  11.49279975891113 0.09558500349521637 3.342657089233398  11.49242999473499 0.6047198354650321 3.509830968972785  12.57624767607076 0.805107125684277 3.942777852208582  11.49206023055885 1.113854667434848 3.677004848712172  10.74765014648438 6.248065948486328 6.593516826629639  11.22853469848633 5.718913793563843 6.371278524398804  10.76630199462387 5.784760709333858 6.24210292316104  10.91213989257812 5.834565877914429 6.65388035774231  11.06404495239258 6.132413864135742 6.310914993286133  11.38043975830078 6.016761779785156 6.028313159942627  11.08269680053208 5.669108624983272 5.959501089817534  11.07662963867188 5.421065807342529 6.71424388885498  10.93079174071762 5.371260638761958 6.302466454273711  10.78495384276337 5.321455470181387 5.890689019692442  12.49604988098145 0.09558500349521637 7.991859912872314  12.8162150760126 0.6601514999261928 7.449742268050425  12.94885969161987 0.09558500349521637 7.35938286781311  12.52263975143433 0.09558500349521637 7.539404392242432  12.92226982116699 0.09558500349521637 7.811838388442993  12.78962520555972 0.6601514999261928 7.902197788680308  13.34848976135254 0.09558500349521637 7.631816864013672  13.21584514574527 0.6601514999261928 7.722176264250987  12.54922962188721 0.09558500349521637 7.086948871612549  13.08320053013799 1.224717996357169 7.812535664488301  8.296360015869141 0.6927649974822998 11.83318042755127  9.016526462053394 1.337849781387916 11.86794997690228  9.232795660174169 0.6833399056054303 11.71208252978345  8.497894105254471 1.048684876271244 12.162637581091  8.814992372668065 0.9819299025989721 11.53849282336255  8.915697392760574 0.750094879277702 12.3362272875119  8.714163303375244 0.3941750004887581 12.00677013397217  9.131966590881348 0.09558500349521637 12.18035984039307  9.333624729466989 1.271094807715644 11.24380521917383  8.699428194639799 1.404604755060188 12.49209473463073  11.59667528369328 4.304355376835275 3.522036725011619  11.25801256251717 5.136402824320571 3.172916144293502  11.11119465515805 4.46059334744732 3.18819746106158  11.54789718375688 4.810606427913823 2.924699014920277  11.74349319105241 4.980164853708526 3.50675540824354  11.89031109841153 5.655974330581777 3.491474091475462  11.69471509111601 5.486415904787073 2.909417698152199  11.49911908382048 5.31685747899237 2.327361304828936  11.06241655522165 4.966844398525867 2.590859750970239  10.62571402662282 4.616831318059365 2.854358197111542  8.010067772015269 3.80856496584297 15.5848254334722  8.946136000714958 2.92072851326158 15.85952661865596  8.047094226362502 2.713714520634536 15.6378403447634  8.077056627124396 3.252560181782572 15.96143078233451  8.849184744843935 2.937887636173942 15.15933083222254  8.879147145605829 3.476733297321978 15.48292126979365  7.980105371253375 3.269719304694934 15.26123499590109  7.95014297049148 2.730873643546897 14.93764455832998  9.74822651919639 3.144901628800987 15.3810171061151  8.144045482233524 2.696555397722174 16.33803613119682  9.21292781829834 2.599617004394531 2.399317979812622  9.195851505008394 1.820344993949539 2.340933851016537  8.820598602294922 2.225744009017944 1.991134464740753  9.204046726226807 2.450497508049011 1.991828501224518  9.579299628940278 2.045098492980606 2.341627887500302  8.829479694366455 2.374863505363464 2.398623943328857  8.44603157043457 2.150110006332397 2.397929906845093  9.195165634155273 2.301378011703491 1.584339022636414  9.570418536868745 1.895978996635086 1.934138408912198  9.945671439582217 1.49057998156668 2.283937795187982  10.48462009429932 4.025020122528076 1.526921987533569  10.93885376387747 3.412934821253476 1.361905603398557  11.12819864684256 3.800747912531552 1.449212579716916  10.53810024261475 3.742175579071045 1.126473993062973  10.29527521133423 3.63720703125 1.43961501121521  10.10593032836914 3.249393939971924 1.352308034896851  10.34875535964966 3.354362487792969 1.039167016744614  10.59158039093018 3.459331035614014 0.7260259985923767  11.18167879515799 3.517903369074521 1.04876458524632  11.7717771993858 3.576475702535028 1.371503171900263  10.4499397277832 0.09558500349521637 2.154144048690796  10.8497688506741 0.5064027793203419 1.640881298112917  10.46090862499661 0.5064027793203419 1.853150306272555  10.51376008987427 0.09558500349521637 1.711235523223877  10.83879995346069 0.09558500349521637 1.941875040531158  11.22766017913818 0.09558500349521637 1.729606032371521  10.90262031555176 0.09558500349521637 1.49896651506424  10.57758045196533 0.09558500349521637 1.268326997756958  10.52472898708767 0.5064027793203419 1.410241780805636  10.47187752221001 0.9172205551454675 1.552156563854313  9.116481935518902 2.385991161292692 6.634608668678653  9.547655193092794 3.751533550886708 5.564656673430804  9.80198131556034 3.081235622091048 5.529657820565417  8.796716894652441 3.024695685096885 5.868964889448861  9.867420233959255 3.112829027082515 6.330300452660596  9.051043017119987 2.354397756301226 5.833966036583474  10.61835853239961 3.839666892872337 6.025992236642539  8.985604098721073 2.32280435130976 5.033323404488295  8.731277976253526 2.993102280105419 5.068322257353682  8.476951853785982 3.663400208901078 5.103321110219069  14.49211978912354 3.038585901260376 5.339619159698486  14.21067705685171 2.735406424291868 4.600869915281698  13.95175114287528 3.001160397955039 5.074847498115019  14.34810677105459 2.582654859312314 5.123240492140218  14.35469007492065 3.191337466239929 4.817248582839966  14.21726036071777 3.344089031219482 4.294878005981445  13.8143214286724 3.153911962934592 4.552476921256498  14.20409375298564 2.126723817364253 4.90686182458195  13.80773812480634 2.545229356006978 4.858468830556751  13.41138249662703 2.963734894649702 4.810075836531551  7.065454006195068 1.134829044342041 3.191893100738525  7.537010197580107 0.8032547464216568 3.196771713197077  7.49817514890457 1.016271256431422 3.357222767770136  7.522294271670467 1.147287558460196 2.983665153655729  7.104289054870605 0.9218125343322754 3.031442046165466  7.143124103546143 0.7087960243225098 2.870990991592407  7.561129320346004 0.9342710484504305 2.82321409908267  7.979134537145866 1.159746072578351 2.775437206572932  7.955015414379969 1.028729770549578 3.148994820687339  7.930896291614072 0.897713468520804 3.522552434801746  13.43336009979248 0.09558500349521637 1.340989947319031  13.21349921003951 0.7740382262164898 1.095291641549454  13.60103511810303 0.349635012447834 1.001661986112595  13.13436508178711 0.3554079905152321 1.007036477327347  12.83537006378174 0.6152309775352478 0.6730830073356628  13.38117422835005 1.028088235169107 0.7559636803430174  12.91450419203414 1.033861213236505 0.7613381715577696  13.30204010009766 0.6094579994678497 0.6677085161209106  13.76871013641357 0.6036850214004517 0.6623340249061584  12.99363832028654 1.452491448937763 0.8495933357798764  12.26941967010498 4.806023120880127 5.94892692565918  12.16763322197965 3.934688541521601 5.742847534348469  11.44388910125229 4.322845006876232 5.987459581150859  11.90472572959947 4.69551335707344 5.48998982156159  11.54003178909395 4.585003593266753 5.031052717464001  11.34210265312696 3.451510427517706 5.781380189840148  11.80293928147413 3.824178777714915 5.283910430250879  11.07919516074678 4.212335243069545 5.52852247705327  12.06584677385431 3.063353962163075 5.536768143037758  12.65824031829834 6.16057014465332 16.96110916137695  12.36412000656128 5.377256631851196 16.88165473937988  12.35974055235158 5.746891872960335 16.51769254709769  12.74321031570435 5.697168588638306 16.84744453430176  12.27915000915527 5.840658187866211 16.99531936645508  11.90005970001221 5.520746231079102 17.0295295715332  12.44471054975759 5.28349031694532 16.40402792002249  11.98065024320852 5.426979916173226 16.55190275217581  12.82818031311035 5.233767032623291 16.73377990722656  12.06124078640482 5.33321360126735 16.07427593281842  12.59564018249512 3.880254983901978 13.10568046569824  12.08205924449544 3.182272529504498 13.71946073942563  12.4994905609394 3.483543725936881 13.75760674110074  11.91426454005818 3.510590052507122 13.41018606596372  12.76343488693237 3.551937460899353 13.41495513916016  12.93122959136963 3.223619937896729 13.72422981262207  12.66728526537666 3.155226202934257 14.06688141456266  11.23288889762124 3.140925121112267 13.71469166622919  11.81811
[...]
<PointData  Scalars="p_O2"> 
<DataArray  type="Float64"  Name="p_O2"  format="ascii">9.9993478726278724e+01  9.9997345061711769e+01  1.0001118680406726e+02  9.9998229660718820e+01  1.0000921960917566e+02  1.0000386932742585e+02  1.0001274162630284e+02  1.0001583120766563e+02  9.9998228842622709e+01  9.9994725045251116e+01  9.9990886133230603e+01  9.9986704083521417e+01  9.9985985771550091e+01  9.9991760660932783e+01  9.9991942517633390e+01  9.9993576052262398e+01  9.9987739462238864e+01  9.9992587161638440e+01  9.9992488603959828e+01  9.9981776874919490e+01  9.9998142552301317e+01  9.9993448273250962e+01  9.9995216381912257e+01  9.9993722545840342e+01  9.9995422497066400e+01  9.9997796775539484e+01  9.9997403920691880e+01  9.9994553872430572e+01  9.9987407140082794e+01  9.9990186528813183e+01  9.9943580810515741e+01  9.9965612389151332e+01  9.9922545402298809e+01  9.9950354468752209e+01  9.9957341093109974e+01  9.9965628619674192e+01  9.9943145991351770e+01  9.9951773837157518e+01  9.9932859105309717e+01  9.9921680055731159e+01  9.9984969495861577e+01  9.9989349487510140e+01  9.9998274578275726e+01  9.9994322392643582e+01  9.9978003315671771e+01  9.9988029055709674e+01  9.9991526802278599e+01  9.9988264676857526e+01  9.9995550699032705e+01  9.9989886286812350e+01  9.9968030255586683e+01  9.9871939443019528e+01  9.9937406340161544e+01  9.9921049147568908e+01  9.9918063630907071e+01  9.9938659266073813e+01  9.9970189709792535e+01  9.9978585888111439e+01  9.9897344124541064e+01  9.9868701134490593e+01  9.9978340794194665e+01  9.9968419115837449e+01  9.9979337913390154e+01  9.9978736120729110e+01  9.9974947502372885e+01  9.9978470804476459e+01  9.9974823112145387e+01  9.9982483671113599e+01  9.9981622067688235e+01  9.9977199483751477e+01  9.9788473662380142e+01  9.9873668672876008e+01  9.9859965119033944e+01  9.9848460282740845e+01  9.9819747199800375e+01  9.9811355856209516e+01  9.9785717328923482e+01  9.9802222943257874e+01  9.9861285462124499e+01  9.9886817774381853e+01  9.9982182965801741e+01  9.9996278010496539e+01  9.9999423862347371e+01  9.9986378844350057e+01  1.0001005826640377e+02  9.9993496199473881e+01  9.9991595075767279e+01  9.9988289545153819e+01  1.0000004713953489e+02  9.9992144374488490e+01  1.0000895731473135e+02  9.9996903084803819e+01  9.9991430067540890e+01  9.9997653656586522e+01  9.9994251142288192e+01  1.0000125468024977e+02  9.9992663496807424e+01  1.0000357525637338e+02  9.9998014587533248e+01  9.9994356870599219e+01  9.9998873724586929e+01  9.9991252467804287e+01  1.0000085118601507e+02  9.9998973460473380e+01  9.9990023903601710e+01  9.9998508858773775e+01  1.0001615424600016e+02  9.9993094910132442e+01  9.9996776961474509e+01  9.9999974033370037e+01  9.9927196741146602e+01  9.9906009321849297e+01  9.9928921561718994e+01  9.9923604920853847e+01  9.9910889770780543e+01  9.9954421838173388e+01  9.9924317293995131e+01  9.9966933142960769e+01  9.9948401944506529e+01  9.9919317921563419e+01  9.9994793393864612e+01  1.0000783104250829e+02  9.9995199415735385e+01  9.9975036085572810e+01  1.0001092545062400e+02  1.0001562192305759e+02  9.9983732295168437e+01  1.0002327981368119e+02  9.9978869989087826e+01  9.9994355563736093e+01  1.0000068419811596e+02  1.0000084581956641e+02  9.9999241611908658e+01  9.9998241271658458e+01  9.9998064659876690e+01  1.0000391337445231e+02  1.0000029069106576e+02  9.9997075935252539e+01  9.9997532987205290e+01  9.9997364636765980e+01  9.9997075525646821e+01  9.9997554840031157e+01  1.0000247440876561e+02  9.9998779656320366e+01  1.0000172930771326e+02  9.9997534643035152e+01  9.9998925235337921e+01  9.9998354999737941e+01  9.9989325493645453e+01  9.9999084280221297e+01  9.9980567126278657e+01  9.9984305576745399e+01  9.9950339987486032e+01  9.9969173662020680e+01  9.9958805081992949e+01  9.9953669311004219e+01  9.9964703952083894e+01  9.9945113408707641e+01  9.9972292886508555e+01  1.0002266588707309e+02  9.9948532959544096e+01  9.9942563249990670e+01  9.9984367143003027e+01  9.9989187644170968e+01  9.9995114876288838e+01  9.9979456752315514e+01  9.9978389977524841e+01  9.9989669131605837e+01  9.9948792792508101e+01  9.9994902732366526e+01  9.9951230504629905e+01  9.9948173342745520e+01  9.9923609005525492e+01  9.9990383851199041e+01  9.9980734106442398e+01  9.9966639892973390e+01  9.9897718292926825e+01  9.9942507804561501e+01  9.9960673577035521e+01  9.9778444178744564e+01  9.9684322162749496e+01  9.9545925450288749e+01  9.9747017793030395e+01  9.9771624765195440e+01  9.9649416253057737e+01  9.9503283464894295e+01  9.9102655358844899e+01  9.9404970596965057e+01  9.9614530297099677e+01  1.0003458289501388e+02  9.9961968837462706e+01  9.9961670205369643e+01  9.9974538847959039e+01  9.9971976720088932e+01  9.9936887195870099e+01  9.9952404402623927e+01  9.9959089894943261e+01  9.9938798078319721e+01  9.9930634098666118e+01  1.0000198070434982e+02  9.9984748566309790e+01  9.9978209595560187e+01  9.9987077250665280e+01  9.9992169790499020e+01  9.9996668156003082e+01  9.9989702752176854e+01  9.9991525014089220e+01  9.9994763432692324e+01  9.9980701496572607e+01  9.9769227967427739e+01  9.9507904669506956e+01  9.9401137166725704e+01  9.9481118044218007e+01  9.9714075428282925e+01  9.9716389312649923e+01  9.9806273073206825e+01  9.9681864953608937e+01  9.9707881708170731e+01  9.9166568121423623e+01  9.9812234816137320e+01  9.9827995458008971e+01  9.9850527870164683e+01  9.9790666882121599e+01  9.9855747584901479e+01  9.9887322850729120e+01  9.9765205632889675e+01  9.9848385430163873e+01  9.9907908759527956e+01  9.9974029216628765e+01  9.9925663483907840e+01  9.9956601508578743e+01  9.9946098539907453e+01  9.9908173848551087e+01  9.9982294635897446e+01  9.9988065891303947e+01  9.9951679635224323e+01  9.9913175088580914e+01  9.9856410639517335e+01  9.9995472134088189e+01  9.9985175606816995e+01  9.9972493118892842e+01  9.9993726335622682e+01  9.9995685805558452e+01  9.9993240851538715e+01  9.9990116414366113e+01  9.9974153502194298e+01  9.9980609468833109e+01  9.9984498359314642e+01  1.0000089595910720e+02  9.9986420463152569e+01  1.0002164866637038e+02  9.9958096996067866e+01  9.9998817863327858e+01  9.9989347079716438e+01  1.0001151425438209e+02  9.9799092847373387e+01  9.9841839684723780e+01  9.9798442175214191e+01  9.9856466323052544e+01  9.9680975264544074e+01  9.9744879151597246e+01  9.9863491007199556e+01  9.9778596470880373e+01  9.9999333094725998e+01  9.9993874657808732e+01  1.0000091278612726e+02  9.9996463825394102e+01  9.9986990106479894e+01  9.9983109482123368e+01  9.9992301476159014e+01  9.9984325299485121e+01  9.9988985818196099e+01  9.9697553235250368e+01  9.9731303848465572e+01  9.9829119186862826e+01  9.9805441575006384e+01  9.9797632660164254e+01  9.9819093904193195e+01  9.9759298453081470e+01  9.9971838945647391e+01  1.0000345852208983e+02  1.0001358530236601e+02  9.9985832488075488e+01  9.9999177742381889e+01  9.9987926049113767e+01  1.0000681577368874e+02  9.9985189264813485e+01  1.0000404591457696e+02  9.9986219253349802e+01  9.9951703571271167e+01  1.0002826874877914e+02  9.9995726861859538e+01  1.0000655719002057e+02  1.0000136882635088e+02  1.0002338598268238e+02  1.0001951727288011e+02  1.0000186961547989e+02  1.0002346327406856e+02  1.0001884486510529e+02  9.9996295171011482e+01  9.9992914805471699e+01  9.9993588205475078e+01  9.9992491159314241e+01  9.9999804060948563e+01  9.9997857462618342e+01  9.9984995548432764e+01  9.9985425528532318e+01  9.9988678031525353e+01  9.9990182828429354e+01  9.9879875607299340e+01  9.9526041239791027e+01  9.9712342741699516e+01  9.9770921824534156e+01  9.9683951868967000e+01  9.9562362554734406e+01  9.9630321697167929e+01  9.9717814634410331e+01  9.9637828060623164e+01  9.9535258445980134e+01  9.9994751321734057e+01  9.9993896796917340e+01  9.9988576529318081e+01  9.9995357857299823e+01  9.9993020762963184e+01  9.9997799201095049e+01  9.9990118014743956e+01  1.0000699800772034e+02  9.9999594121880335e+01  9.9991694342346278e+01  9.9979954096067175e+01  9.9970288069675831e+01  9.9964506128352483e+01  9.9980735000945828e+01  9.9982519943844522e+01  9.9982770768019449e+01  9.9966541703581839e+01  9.9983343890418396e+01  9.9985983157656435e+01  9.9949493016729448e+01  1.0000218855459397e+02  9.9996998750394383e+01  9.9997580781135738e+01  1.0000168099183007e+02  9.9997163137024103e+01  9.9998516908426907e+01  9.9998934475257443e+01  1.0000144216172423e+02  1.0000032825949356e+02  9.9999337328897795e+01  1.0000044822418798e+02  9.9987843825236254e+01  1.0001354311108038e+02  9.9990708345073230e+01  9.9994484190396761e+01  9.9989318045081532e+01  9.9996966526943737e+01  9.9995167741756362e+01  9.9998267630489451e+01  9.9981290133270875e+01  9.9991255453337772e+01  9.9988804020486356e+01  9.9986088515255744e+01  9.9997770012275623e+01  9.9995583355728485e+01  9.9986392433887630e+01  9.9976840098090463e+01  9.9963214194395974e+01  9.9948486805220767e+01  9.9962026736916854e+01  9.9999439544794271e+01  1.0000236765470953e+02  1.0000114424221091e+02  9.9996704750060374e+01  9.9995127635038770e+01  9.9993854320144649e+01  1.0000067833019821e+02  9.9987707292154312e+01  9.9990091735325521e+01  9.9992244187303896e+01  9.9992825355866046e+01  9.9997385070083496e+01  9.9989068128515839e+01  9.9989331238372827e+01  9.9990239188114330e+01  9.9985396255118474e+01  9.9510984824666849e+01  9.9703846003544527e+01  9.9676579626293602e+01  9.9373124830143624e+01  9.9344958736484315e+01  9.9618722953007406e+01  9.9879534609405752e+01  9.9839134700628833e+01  9.9781099546122647e+01  9.9878945315836376e+01  9.9880022048004705e+01  9.9742032408147125e+01  9.9841963019849700e+01  9.9764153703110154e+01  9.9665497385324741e+01  9.9810360283465940e+01  9.9995055492278240e+01  9.9997679465903332e+01  9.9998907250834151e+01  9.9997331365799099e+01  9.9999248199279918e+01  9.9999742593872611e+01  9.9998801501259081e+01  9.9996141167875450e+01  9.9997218852492196e+01  9.9997331491368499e+01  9.9986071753526176e+01  9.9974001487978910e+01  9.9973463877600082e+01  9.9981191782771148e+01  9.9970370930279216e+01  9.9961853214143161e+01  9.9963920146928984e+01  9.9951748006117882e+01  9.9950901280551932e+01  9.9949893110269898e+01  9.9993113288499885e+01  9.9988413576755093e+01  9.9982952695727064e+01  9.9995063374314782e+01  9.9988335535183907e+01  9.9988969804775564e+01  1.0000249305011052e+02  9.9985250154961648e+01  9.9988306278647201e+01  9.9981600359421776e+01  9.9923051837346975e+01  9.9835560220444250e+01  9.9935508532814410e+01  9.9912491156040971e+01  9.9918438303692611e+01  9.9831463101972304e+01  9.9933058174073324e+01  9.9951879743710393e+01  9.9868582224511400e+01  9.9801367293863876e+01  9.9980733525818565e+01  9.9971166051935924e+01  9.9963847483889353e+01  9.9974907192657071e+01  9.9992620776997143e+01  9.9975749826168098e+01  9.9983453058338043e+01  9.9987955613710696e+01  9.9947213182411218e+01  1.0000045491998753e+02  9.9995655321173913e+01  9.9993128364045006e+01  9.9999237169781480e+01  9.9994757155950580e+01  1.0000351927007088e+02  1.0001344955598020e+02  9.9998401342250517e+01  1.0000099238415397e+02  1.0000600339232174e+02  9.9923686570099420e+01  9.9939812450533978e+01  9.9942495833097908e+01  9.9953480432548233e+01  9.9978127456608675e+01  9.9957474333374293e+01  9.9966997128278123e+01  9.9968247024471324e+01  9.9960770977525044e+01  9.9962483114171036e+01  1.0004544882875311e+02  1.0001213391976984e+02  1.0001664899334685e+02  1.0006967688897015e+02  1.0005386485624291e+02  1.0001105517272276e+02  9.9987447016091508e+01  9.9998784886695688e+01  9.9985608313527010e+01  9.9953468877516556e+01  9.9969242464504774e+01  9.9966912308743318e+01  9.9967599807401982e+01  9.9958082739767846e+01  9.9968378707656143e+01  9.9971141008171898e+01  9.9976132688107711e+01  9.9978541262901700e+01  9.9981537250762884e+01  9.9961729360556930e+01  9.9936800938522893e+01  9.9963832263144894e+01  9.9974388981138418e+01  9.9980812656506089e+01  9.9946433645202248e+01  9.9947978775099571e+01  9.9979358681808620e+01  9.9920959207054807e+01  9.9687580552548923e+01  9.9998829026048639e+01  9.9994589424262031e+01  1.0000126020609471e+02  1.0000253928321085e+02  9.9997288202043080e+01  1.0000823203675682e+02  1.0000371791606460e+02  9.9992911420658174e+01  9.9992118816906896e+01  9.9994226407305490e+01  9.9997786082661335e+01  9.9996996845968027e+01  9.9996920686106336e+01  9.9993408715240804e+01  9.9994471490971549e+01  9.9994707941671052e+01  9.9996734058984757e+01  9.9988316715082632e+01  9.9993067244697926e+01  9.9985552236691404e+01  9.9994549214868243e+01  9.9999998911316737e+01  9.9992125371889045e+01  1.0000057124528696e+02  1.0000405351117979e+02  9.9990203671792514e+01  9.9961994191598350e+01  9.9949809219625962e+01  9.9935291067896443e+01  9.9979513171070607e+01  9.9958879385464954e+01  9.9947813436758409e+01  9.9996900330961097e+01  9.9993888956014032e+01  1.0000787527162743e+02  9.9996247630937148e+01  9.9996141224961747e+01  1.0000638364687148e+02  9.9998739910187652e+01  9.9994226023516930e+01  9.9997552658955712e+01  9.9811149143005409e+01  9.9882171782217313e+01  9.9795377758734958e+01  9.9804084815624535e+01  9.9953312347438029e+01  9.9902254222578335e+01  9.9842260900519435e+01  9.9847414765097980e+01  9.9951036065406655e+01  9.9785677074978153e+01  9.9949360249407249e+01  9.9910594003318721e+01  9.9942014396094137e+01  9.9910461743842077e+01  9.9960270038911744e+01  9.9941131617918558e+01  9.9968189644098018e+01  9.9951632131088914e+01  9.9880668085204803e+01  9.9990630865533575e+01  9.9952059004870549e+01  9.9950549425941546e+01  9.9956999882498394e+01  9.9956096698926828e+01  9.9921768195881157e+01  9.9929151802042341e+01  9.9932527929997917e+01  9.9937486887847868e+01  9.9864006192408169e+01  9.9880109397953831e+01  9.9866745086944050e+01  9.9889299544398270e+01  9.9909750587070192e+01  9.9890872645679849e+01  9.9914966786440715e+01  9.9889736627499957e+01  9.9991284999810290e+01  9.9994767482223963e+01  9.9993138317178690e+01  9.9988963976090872e+01  9.9993587186818786e+01  9.9994786243654829e+01  9.9993960702529904e+01  9.9990075601461797e+01  9.9986128644128343e+01  9.9932897727936918e+01  9.9943852796464910e+01  9.9945499787349959e+01  9.9960720112727785e+01  9.9958087460680147e+01  9.9950753229275080e+01  9.9961760662464073e+01  9.9949457641501155e+01  9.9952264557534534e+01  1.0012493835637959e+02  1.0000737784713237e+02  9.9797739430564988e+01  9.9858007843756525e+01  9.9983438062993159e+01  1.0010267906878276e+02  9.9788643038195630e+01  1.0003442518368321e+02  1.0002828162460281e+02  9.9978973973245203e+01  9.9992980239581343e+01  9.9979181001450485e+01  9.9987598317219110e+01  9.9989305802613430e+01  9.9991451482862530e+01  9.9985646766934750e+01  9.9990813297755636e+01  9.9983130723523388e+01  9.9986166926408160e+01  9.9975812481296344e+01  9.9996442433953476e+01  9.9995170291476114e+01  1.0003419067530380e+02  9.9980009135590578e+01  9.9997889716815934e+01  1.0008414076946013e+02  9.9992355516202579e+01  1.0001125797386651e+02  9.9992840571484024e+01  9.9801933993131783e+01  9.9698522498024801e+01  9.9848470624815263e+01  9.9859855786206325e+01  9.9913350168304191e+01  9.9767627619289428e+01  9.9790159462472616e+01  9.9882676881440204e+01  9.9988501939038457e+01  9.9992184299506761e+01  1.0000857831200197e+02  1.0000185688386412e+02  9.9998954108963673e+01  9.9989520544501460e+01  9.9990972666179459e+01  9.9990094328567451e+01  9.9994868340413461e+01  1.0001843173059640e+02  9.9972774013362496e+01  9.9974474561670505e+01  1.0000874252831734e+02  1.0001284116041893e+02  9.9992501053328098e+01  9.9999050870426785e+01  1.0002910520451633e+02  9.9944559132137712e+01  9.9952738832239191e+01  9.9936563361154398e+01  9.9949429803444602e+01  9.9968165405943509e+01  9.9963331023567264e+01  9.9963474469434942e+01  9.9945908353312475e+01  9.9957568467513369e+01  9.9968307949573870e+01  9.9996441267357994e+01  9.9946659814954018e+01  9.9959212343147072e+01  9.9940619035529750e+01  9.9982368245432227e+01  9.9988593859902849e+01  9.9957274534072752e+01  9.9932606477474863e+01  9.9955910686865124e+01  9.9957824329925813e+01  9.9989293540404191e+01  9.9999249032243753e+01  9.9988273834683383e+01  9.9998107041580283e+01  1.0000322960871472e+02  9.9970791528769155e+01  9.9962409241434074e+01  9.9976324185677811e+01  9.9973134647027990e+01  9.9946007054600358e+01  9.9978317347097075e+01  9.9963439266666839e+01  9.9979786331568079e+01  9.9980923328997719e+01  1.0001063783490832e+02  9.9982481061230644e+01  1.0002641116035826e+02  9.9969339855412727e+01  1.0003011313090525e+02  1.0001793349856467e+02  9.9984045053905191e+01  9.9962437998819183e+01  1.0000673119872418e+02  9.9997422237004429e+01  9.9975331612406706e+01  9.9998612005025009e+01  9.9996034448822655e+01  1.0000348155225900e+02  1.0000411294124874e+02  9.9994763305736811e+01  1.0000559899209360e+02  9.9992980954746272e+01  9.9996755646810271e+01  1.0000051648312616e+02  1.0000085896253533e+02  1.0000627716760714e+02  1.0000075416342685e+02  9.9999471183774006e+01  9.9994613345520676e+01  9.9998762951185427e+01  9.9996929381704803e+01  9.9999531579045112e+01  1.0000182389505767e+02  1.0000414121022635e+02  9.9988439650523560e+01  9.9967700012106221e+01  9.9957706914891659e+01  9.9981472950080189e+01  9.9975561570598472e+01  9.9967845723768605e+01  9.9944979361348260e+01  9.9961586483471663e+01  9.9974267078621594e+01  9.9981957474671276e+01  9.9963053849353244e+01  9.9960576737260681e+01  9.9952342791514099e+01  9.9982970670529554e+01  9.9990986196338611e+01  9.9966409720764119e+01  9.9974169193006247e+01  9.9925415833106513e+01  9.9946840295293839e+01  9.9985341653493720e+01  9.9929706309234277e+01  9.9954805741677802e+01  9.9962007640034244e+01  9.9976611119162854e+01  9.9999150745113582e+01  9.9982377197359668e+01  9.9980446610226835e+01  9.9995993057371464e+01  9.9981862853550012e+01  9.9995387804343267e+01  9.9984044598216570e+01  9.9987693144165107e+01  9.9991879212931920e+01  9.9983945065079013e+01  9.9894667600191866e+01  9.9852085269192401e+01  9.9780099383003872e+01  9.9810784009031181e+01  9.9846937193066836e+01  9.9929182466076298e+01  9.9903000428152936e+01  9.9932696378684199e+01  9.9902559535089694e+01  9.9938811536752411e+01  9.9931809227672844e+01  9.9934258280540490e+01  9.9909901744877970e+01  9.9918709689042785e+01  9.9936696398225834e+01  9.9954106583557518e+01  9.9952727041114443e+01  9.9953601218360603e+01  9.9997291972820975e+01  9.9992538625879831e+01  9.9996077682379564e+01  9.9991355121915390e+01  9.9993484778245957e+01  9.9993580673128420e+01  9.9990587847943132e+01  9.9991217018668976e+01  9.9994104512622030e+01  9.9656733725389117e+01  9.9662971094206753e+01  9.9468220153267367e+01  9.9530752906284206e+01  9.9978420436382507e+01  9.9966123319584028e+01  9.9979424985398936e+01  9.9974294987424869e+01  9.9978766536542665e+01  9.9972518088829645e+01  9.9967544779926172e+01  9.9982282547929074e+01  9.9989151339484849e+01  9.9956825742889819e+01  9.9976572735089320e+01  9.9919069580361736e+01  9.9969070378858078e+01  9.9972911689069903e+01  9.9927189923956306e+01  9.9970308690511445e+01  9.9969032653396638e+01  9.9938388959313883e+01  9.9901845522063496e+01  9.9967668456010912e+01  9.9915692090751946e+01  9.9923585491842061e+01  9.9928914860008888e+01  9.9970612948486902e+01  9.9952046253901742e+01  9.9964447353432561e+01  9.9952961953916841e+01  9.9944548196566629e+01  9.9875961910833610e+01  1.0001451755413608e+02  1.0000790924087001e+02  9.9992718811552066e+01  1.0000608122952801e+02  1.0000369024133119e+02  1.0000578755329099e+02  1.0001091189229066e+02  9.9806978444272275e+01  9.9794844089677497e+01  9.9820785814610147e+01  9.9853375766720703e+01  9.9782012582150045e+01  9.9762302661957079e+01  9.9835921595660338e+01  9.9892657152040229e+01  9.9856911320524134e+01  9.9852566834222529e+01  9.9787380422547272e+01  9.9642319462757584e+01  9.9807278273987478e+01  9.9599614265086458e+01  9.9854013775102985e+01  9.9837395405738491e+01  9.9665059680743923e