<?xml version="1.0"?>
<VTKFile type="UnstructuredGrid"  version="0.1"  >
<UnstructuredGrid>
<Piece  NumberOfPoints="629" NumberOfCells="2079">
<Points>
<DataArray  type="Float64"  NumberOfComponents="3"  format="ascii">3.491737 24.333311 38.653694  3.763129410559318 23.72554154065291 36.23772721655934  4.600878406467806 23.70129615299237 38.20827648052114  2.607065 23.326437 38.215244  0.603087 37.120468 38.408585  0.840201 38.402462 39.102985  1.784479158640057 37.52984042831012 38.7158587054848  1.283072151409495 37.95290740074805 37.74073669664242  10.73988342026573 34.59715082409032 33.60318708036579  10.13628703520688 35.95558630749017 32.97296975323494  11.91410490186142 35.89788233028639 34.51999081214717  11.49963691198201 36.45251480971842 32.89944086236505  7.457604497486559 35.0196921044006 31.02297966678735  8.239817940784576 33.73526054058998 33.66484733007432  6.064605576299736 34.74651541576341 32.59896136681805  6.531255504545751 32.76130078689942 31.47900942603741  3.707137 39.328079 38.692787  4.611993 38.583508 37.834431  4.673864 38.350456 39.263859  3.253054083885039 37.75843972253169 38.73667112377554  5.763709 29.472672 30.982405  4.219729410099634 28.07297453785526 31.86070609598556  4.758743316715847 29.50455105324741 32.60526506221306  3.691202405051743 29.29849904717437 30.83337410969204  11.119224 32.906277 34.245434  12.305717 33.807682 34.295013  12.383677 32.112816 33.60722  11.55352397110689 33.04289778195716 33.0581139535344  5.547022 23.122042 34.558323  5.947637 24.186884 35.470734  5.812864 24.260544 34.201469  4.540649036872873 24.94704293019029 35.32844184172298  6.677454 31.441936 39.389454  6.478061 33.132816 39.990357  7.874747 32.282337 39.990357  7.380348530048219 32.90377804932274 38.21144286874158  4.847517 34.685501 38.791553  5.759671865949858 36.64160670622064 38.26573376802241  4.291849 36.015755 39.339779  6.075333 35.148335 39.990357  9.19318 34.426727 39.990357  7.733386709034172 35.40763802979601 38.05642941776812  9.124724300762058 33.89022761670225 38.43664314899475  7.858265 33.979588 39.990357  2.076619 22.254501 30.698639  2.437979 21.347383 31.806593  3.682052350732664 22.81856774399645 32.47707875580636  2.481176506574315 23.57548020685159 32.07802426603327  5.641459 30.48027 39.09779  7.864541697810786 30.85275924752638 38.55904670099615  6.261143575698088 30.34089319402128 37.62596112594539  5.94495 26.291397 32.892464  5.867522 24.893793 32.951851  4.047499738892058 25.66750972076643 33.69044783721145  4.156026434022519 25.92491430340069 31.57538140784649  4.46014 26.551758 29.028824  4.208613 27.961252 29.338703  3.162722642184209 25.96664364818947 29.42134365216867  3.662426028563189 27.54383676787637 30.56730091679312  8.948842000000001 32.842514 36.844234  8.718802940557444 32.08033774462921 38.96962360993875  9.729246 32.506638 37.904728  15.412413 35.374397 38.40395  15.148372 35.825916 36.893959  15.695393 34.581436 37.605907  14.0569272610166 35.52535191620734 37.38019494960862  1.77154 26.514025 35.802876  1.741779 27.261383 34.722748  2.840180495133695 28.05461242886726 35.30644130173434  2.890080661388932 26.01990406655274 35.11727378413246  7.623644 35.596951 35.423592  6.554256518232359 35.68868670286827 36.60463910637007  6.065669159606535 34.8069885239962 35.42076226291469  7.766799327915774 35.03600779137635 36.07942404751582  8.056710000000001 27.683594 39.384457  8.58497 27.944098 39.307259  8.142677000000001 28.061996 38.44109  7.973685 28.773165 39.990357  9.572519 37.139828 39.990357  10.64432 38.389282 39.990357  11.162582 37.024349 39.990357  10.49086394812591 36.57585236879772 38.20733883802088  2.1404 36.53006 38.991447  3.210762 36.625607 39.990357  3.533179 36.610668 38.481861  11.623145 33.968327 32.026222  13.305231 33.657326 31.872005  12.979053 35.302101 31.727983  12.50531123456445 34.59174647552635 32.99941884685436  12.44405014121807 37.32684997207451 38.18712788120018  13.46869485831235 35.89686010359049 38.37514270554392  12.01627032231037 34.88150456790533 38.24265074043592  12.35657099992179 35.77676177599736 36.74306224186  14.61748577631441 34.62076775921613 32.98161934447208  14.82711034193815 36.3158536889915 34.28552413802571  16.11121988629556 35.9593734524323 33.85197959954429  14.87714355231105 36.16848891716023 32.04388316243688  3.279831 38.594887 39.990357  0.02680700000000003 26.024086 28.046942  0.662416 24.571497 28.672291  0.02680700000000003 24.583996 26.884348  1.63751444247734 25.63357725102335 27.48755575277098  14.49789769821375 38.35906891737877 33.61779897526313  13.97362781457666 38.55699652270248 31.15286622427799  13.35293665728928 36.69341894896381 32.70327242019523  4.776487 37.149807 37.569118  3.470437 37.694729 37.059368  6.231664192554446 34.87653703679585 38.25263449506433  3.474542 20.065659 37.325596  2.344524 21.260567 37.237984  4.059918430361469 22.07665920781867 37.76405497172473  3.541486233208299 21.2970719731311 36.02412312717848  14.861241 33.251736 34.024681  13.780857 32.094486 33.737865  13.333708 33.281509 33.714043  14.29413717163111 32.61850671665945 32.52858611984708  2.766728 27.399797 31.923908  2.113667 27.267929 30.8456  2.048329 26.0471 32.084385  10.247683 30.701237 39.270065  9.348064986845491 31.49379496293508 39.23692409731642  10.261154 31.456106 39.295631  9.89255 31.005133 38.754032  1.200426 24.50938 30.170448  2.543260281390609 24.4473531632908 28.05630469855596  1.149256 26.12007 29.657486  2.87541 29.503675 33.468197  3.734738153258459 31.02979939018765 32.58653176382396  2.694309 30.614759 32.639343  8.291062 32.173084 36.298531  6.037271830592046 33.41433453533368 36.86221341888562  7.314485512360674 33.6498527035554 35.16235808882958  6.119127384892789 31.85861429234082 35.62346058086197  12.07617486721951 38.42288890839973 32.37635261539535  11.390626 40.003617 34.506832  10.288734 40.003617 32.943436  10.10289110013668 37.8863950870175 33.7315051269423  4.89715 34.152744 36.461483  5.041805 33.526024 37.935757  4.911188 32.469734 36.974308  7.042832454685493 37.14699290492619 37.33797413653988  8.384468999999999 37.512695 39.990357  9.384359589255739 38.25699408286753 38.09655666387023  8.780302357233714 36.42050889008285 38.67061080788081  6.925707 30.183067 31.005865  5.628476528603532 31.3624059484801 32.62703286866142  5.187995996513818 31.00583916071344 30.58779547061627  13.665773 34.423508 34.466194  5.981058 25.287668 34.459206  4.447879408615597 27.38483951908852 33.44295908034881  5.107932457426512 28.84821269816939 35.20254468287617  2.893765 19.365746 35.757271  3.251268 18.86441 34.336697  1.525102 19.489321 34.500763  3.446423320667877 20.24531041680105 34.48313191335816  16.40106 36.124668 30.440819  14.718563 37.117233 30.18475  14.570023 35.757015 31.024826  16.08048013819194 37.77917544073343 32.31463994598835  15.41352571410226 38.91176101691733 30.23681936831292  2.111643304820675 22.00432803557266 33.86617694357493  3.70491931939983 21.16751398135583 32.59256215090387  10.37905 33.77821 39.990357  11.66847 33.313847 39.24445  10.95581 33.315422 38.115658  10.46312498056848 34.59202498276098 38.55560839466122  8.163311 31.587439 35.141636  7.398713570042986 31.81588082400524 33.2517169932207  13.425779 40.003617 33.922863  14.534563 39.268955 35.356766  12.76595 40.003617 35.588421  12.17828766782024 38.48377120348434 34.63300903320786  2.779208070446153 24.14745371625244 33.6438467250216  4.233598716941766 24.42993843708975 32.44379010112498  5.567236 39.34166 31.454885  5.850428 38.501858 31.637426  5.737158159026023 38.92382667262573 30.84502540232405  6.746938367869261 38.99097631911251 31.64665549603805  11.328602 34.456219 39.990357  10.036057 39.267136 39.096272  9.336615999999999 38.369026 39.990357  8.481661000000001 38.634628 38.787239  12.578025 34.714806 35.588409  13.66213913159427 36.82223115167815 35.66341478951422  6.870679 26.970465 38.83419  5.184397 28.413046 39.297604  6.930989908111638 28.95067972403469 38.62389771423062  5.360526945604631 28.56221044723013 37.43860405223087  1.180615 26.337641 26.130829  1.162216955279797 27.04722558494515 27.19556166342815  0.02680700000000003 26.093878 26.645576  4.844575 34.703705 37.688843  4.471327 35.760376 38.24498  12.581644 33.024521 32.113327  5.306748 35.961163 35.742649  6.166545 36.84256 35.069019  5.567412 37.338394 36.424915  1.467137 20.615566 35.788658  2.487276 20.160522 36.592995  4.52956053957359 26.84403276531642 36.08483658228517  16.439512 37.621853 34.544285  15.404366 38.160145 35.445423  10.698474 31.04335 32.938553  10.391268 31.710787 33.705982  11.328116 31.545382 33.401756  10.69002883769033 31.99384704995914 32.92114438000387  11.954286 40.003617 37.173115  10.49986 40.003617 36.934219  11.416327 40.003617 35.951218  10.86585160327233 39.00216824964418 36.06504295853338  6.112076 24.394821 36.85881  4.934444141532761 25.84789899495402 37.45235056952658  0.974786 37.242493 34.944637  0.663902 37.66423 33.926975  1.397437 37.385422 33.966328  0.803855 36.969143 34.157146  9.554698626315677 38.84961359008514 35.61859841175772  7.333074 38.944752 36.656555  7.898591290520675 37.86004077344556 36.01886854495949  9.033037999999999 40.003617 36.351734  2.805351 20.16309 32.623051  1.465797 21.215286 32.88401  7.631520515651498 34.17371061434768 36.81964710843602  8.965333836206987 35.02119257852499 36.96149365900128  8.459519999999999 35.425938 35.582623  8.706958329646978 34.04282901438835 35.65952115013699  0.7452569999999999 23.535366 33.918365  0.713462 22.346416 33.332611  1.049462 23.647001 32.47612  5.187713 39.292637 32.474079  6.445189 38.070641 33.055321  4.67376 38.464912 32.99704  13.326505 36.777962 30.88603  13.357916 38.219662 29.643761  12.335467 37.556694 30.644789  5.270955 21.4657 34.713848  3.937732792498909 22.39894137965593 34.36259618953009  7.674361 28.421263 36.312271  7.022103 27.011429 37.213425  9.745082022672467 38.06338172299917 36.72333334506126  10.38682831182165 35.50242079684219 36.26931605360145  9.1705778733
[...]
<PointData  Vectors="u"> 
<DataArray  type="Float64"  Name="u"  NumberOfComponents="3" format="ascii">5.8173298664206738e+00 1.0305172160430033e+01 1.3827922817715982e-01  4.2599766544000035e+00 6.9276537785514662e+00 8.6277729603650304e+00  3.2534291635192836e+00 1.0005347998660834e+01 1.4551855227536514e+00  3.2988005586008193e+00 4.6694804322206478e+00 2.4307319246471337e+00  1.8881711668280149e-01 -1.0844254115416281e-01 2.9644759265152448e-01  1.4593846737812421e-01 1.2426577361172746e-02 2.6814656084149230e-01  2.2010497188356298e-01 -7.4429519614136828e-03 2.2845652556170895e-01  1.9263687686611758e-01 -8.2646681752757023e-02 4.3719502729050824e-01  1.4598518249418024e+02 2.2198618626889456e+01 1.4957340366059135e+01  1.2501652984083437e+02 6.4102536902470263e+01 2.4713233139717360e+01  1.1452004243322011e+02 1.1275309866620647e+01 -2.0740484489641180e+01  1.3615044926769065e+02 1.6490742121285606e+01 -1.4160387978858115e+01  8.4872797910291439e+01 -3.1203452794932122e+01 1.0501353112052563e+02  1.0744762992924829e+02 3.6017318874229410e+01 5.3238208630820068e+01  6.0518831124693470e+01 1.5052301779153215e+01 9.1481691401856523e+01  7.7683516110477967e+01 5.5795126686267906e+00 6.9658840644769725e+01  6.5314038970568111e-01 -5.0612180665720996e-01 3.1237956788012339e-01  4.4707194285560021e+00 -2.7576350386582860e+00 1.2700647311720747e+00  4.1165109590049971e+00 -7.8631884939822971e-01 -8.5294403879352654e-01  8.0745764099296358e-01 1.9371327213223383e-01 -1.1108597358407713e-02  5.2761587121921842e+01 1.5086994912541051e+01 4.5703256640766526e+01  2.4399861211659882e+01 -2.0474448326484960e+00 4.8075838604449785e+01  3.5846678926326412e+01 8.8913584121205744e+00 4.7986412149656047e+01  4.3794821860609694e+01 -1.0781883073555246e+01 5.7208361248147405e+01  1.6811343905376469e+02 7.3586039110460906e+00 -4.1123643422595968e+01  1.6495215255074979e+02 -6.6709750137279047e-02 -7.1168133619901553e+01  2.5971021940015174e+02 -1.2214130075956723e+02 -3.3632763491221610e+01  2.2016405386473070e+02 -3.4802714356930409e+01 -9.7952564155383559e+00  3.1011585444955800e+00 3.1054616477376031e+00 1.1811109637177138e+01  3.0112059130657922e+00 9.5200415633205484e+00 1.2084421233962596e+01  3.2311490279090527e+00 4.7113562459532776e+00 1.7508902956282839e+01  5.6409584333799270e+00 1.0216330133266444e+01 1.5489078657333632e+01  2.7265944768574023e+01 6.9572616659801369e+01 1.6114935411526073e+01  6.7449194882376666e+00 3.9287898238434245e+01 1.5337509558303344e+01  2.4206326705477306e+01 5.1771524330088667e+01 7.8559613436071887e+00  3.5946441810535724e+01 5.3434501809838238e+01 2.0768814085363573e+01  -8.5019847586561994e+00 3.3936445875132009e+01 2.0503724314654153e+01  1.6360752357894125e+01 1.8373305000201047e+01 4.9839714361085967e+00  -5.7387434187037583e+00 9.3442889587281162e+00 6.3406188947782258e+00  1.2254858826558188e+01 2.3007174127687776e+01 -7.8795514418782867e-02  6.4405020115567766e+01 4.3581094680867345e+01 2.3419797254407496e-01  4.7233086463699898e+01 3.7894231411368793e+01 1.2139563192668030e+01  6.6549412595901259e+01 5.1413351840246207e+01 6.4260890844611733e+00  4.2306766120873895e+01 4.4991808510832875e+01 -2.6784344001899452e-01  1.3305382939225103e+01 -1.9640734034938653e+01 3.6374756663746048e+01  3.7376195468696940e+00 -1.4015274207097592e+01 1.4321653480522308e+01  6.0394481310146855e+00 -9.0247023219299614e+00 1.3562678573885483e+01  3.0342026897620715e+00 -9.8113328042687122e+00 2.4621515016492793e+01  3.1029207808241733e+01 4.5056022941970149e+01 2.2332221921276432e+00  3.5684789976490933e+01 5.7684077646255524e+01 1.4980843501883996e+01  2.9248395648655848e+01 4.4297586707027463e+01 2.0587622270505804e+01  5.4701322147364895e+00 1.1130868704440561e+01 3.0438390073149836e+01  1.1367785785666660e+00 2.4591556773235612e+00 2.2698850724071885e+01  6.1924980686439994e+00 5.6369408548661033e+00 2.3449662248096104e+01  1.2099516383560783e+01 -5.8731819414272426e+00 3.3001701050564741e+01  3.2375555156745008e+01 -2.2988490380470598e+01 2.8741396385408326e+01  3.0805033934917727e+01 -2.3332260396783287e+01 5.0693523458029055e+01  2.9841505799475140e+01 -2.1886732235016680e+01 3.8065278492691583e+01  2.9956647850028784e+01 -1.5276018947116961e+01 4.6714766127598658e+01  7.3183192115495075e+01 7.0604559748864730e+01 1.8408369830477607e+01  3.5681758907355899e+01 6.2678847842606871e+01 6.7409552500593160e+00  6.7337858169050463e+01 8.6166757439701200e+01 3.5436834072355899e-01  4.9658017466871364e+01 -1.2250290162675434e+02 5.3259479570349288e+00  1.4476927251024364e+01 -1.9858743957623634e+01 -3.3300716532232279e+01  9.2277181637374454e+01 -1.9707918165690154e+02 4.0979508625114107e+01  5.8317738040073664e+01 -3.0453223564665230e+01 5.2239904416484801e+00  4.2530672265484881e+00 1.2934598493320077e+01 1.2089048699070853e+01  -1.2526282798721464e+00 1.5449815907841328e+01 1.4755119193594417e+01  7.9210303982762671e+00 1.3735475298699846e+01 1.7957792923925595e+01  5.8997991114758692e+00 1.0740774638137442e+01 1.7218159540107703e+01  7.7379745897971162e+01 6.0526932842744294e+01 8.5664762029830797e+01  3.8660983214624743e+01 4.7593496879826859e+01 3.5360529309046122e+01  4.7921199367783871e+01 4.6956627886173038e+01 6.8077086517651253e+01  6.4974077432883107e+01 4.6607489958709721e+01 3.2476739394251723e+01  1.2078233394043655e+01 1.0750823139396521e+01 6.4214898560044231e+00  -2.0720609712245125e+01 -1.2280949840099161e+01 7.5372310331195314e+00  1.7036172926018661e+01 2.4479990901645643e+01 1.2479822053177269e+01  8.2941921111909931e+00 3.8241902051343807e+01 -3.7052383860228826e+00  5.2830072754775607e+01 1.9723989198055939e+01 1.7447433555653333e-01  4.7764816522348937e+01 2.9667128600686508e+00 -3.1621182561067553e+00  6.1456851039256300e+01 5.5405022943999969e+00 6.4696636083841974e-01  6.6789999267652476e+01 1.6595584064670536e+01 -8.1904559273541311e-01  4.4031057892230629e-01 3.4575080705278290e-03 3.0695426115865770e-01  3.7243499200655439e-01 -5.8286775209578756e-02 1.7033817625886963e-01  -2.4554443812402118e+00 6.6304016282780609e-01 -8.9053995183918011e-01  2.6027249023474951e+02 5.2312964922677780e+00 5.5598439169905156e+01  1.8975639374985639e+02 -6.8526914026162444e+01 -5.2045944304873650e+01  1.5762591186734716e+02 -1.6804458011316342e+01 -4.6593379508021741e+01  1.7287387682007315e+02 -1.3059200891438946e+01 -2.8719751959858105e+01  5.5606640887076487e+01 -5.7479496193533031e+00 -8.7971220370521213e+00  6.7444937481324445e+01 -3.6401043220919988e+01 -9.5911266269106878e+00  9.9766857904637305e+01 -1.2625552309888195e+00 5.4316035397237314e+00  8.7256124955698368e+01 4.8662990294854120e+00 -1.1849655043124091e+01  1.3620785203864062e+02 -5.9643672224618086e+01 -4.0474004873340704e+01  1.0961909069507924e+02 -3.0532814474140181e+01 -6.6247297502638489e+01  1.1151807747359945e+02 -4.4990227478848588e+01 -6.8386006744429579e+01  1.2567911244158987e+02 -2.6865875071970134e+01 -4.0631367048267833e+01  4.7841976837323641e-01 -6.0025544670236859e-02 -1.9793297446175359e-01  9.7343363089303239e+01 -2.0599483064688293e+01 9.0077984503479300e+01  3.0919481576350115e+01 -2.1263603831433336e+01 6.0925204141541684e+01  9.2519664263123772e+01 -2.0202010663044156e+01 7.9211407764262294e+00  4.3278203154378602e+01 -2.4137765115497924e+01 3.0621160411022441e+01  1.0680559775232005e+02 -6.7578710825864841e+00 -5.5665708426236627e+01  1.2585581992890413e+02 -3.6823077597872738e+00 -4.1965964792403760e+01  1.2708521833449046e+02 -1.0549664978614027e+01 -3.9737306540979354e+01  3.8107707545178733e+00 8.4100637515667849e+00 -7.4447737724175189e-01  9.0888557181706797e-01 -5.4457573539843040e-01 1.2792156300251034e+00  2.1468668499879971e+01 3.8995935112225290e+01 1.9297475481241555e+01  1.4042359915287350e+00 1.1965668397314102e+00 5.6485070771857462e+00  2.1361029609648963e+00 2.1932463283023842e+00 6.7733748913026846e+00  1.8187434484341443e+00 3.9383849180250370e+00 3.6317099334022296e+00  2.2627430944273907e+00 1.8719016654372287e+00 5.4580121220015512e+00  1.4006650782158141e+02 -1.2039108043044715e+02 -3.8363507942614521e+00  1.7102119835665869e+02 -1.0692891062113524e+02 2.2465238557525961e+01  2.0383764837762604e+02 -9.3369792819457231e+01 -3.6474182346147366e+01  1.4308764043199312e+02 -8.4880351770226682e+01 -2.7809815275743674e+01  9.7469963832658415e+00 -7.6848023345619918e+00 5.8019717301584556e+01  3.0680805793875962e+01 -2.8001035909034819e+01 5.7409223126784141e+01  6.0311328290036703e-01 -4.8128605163677909e+00 4.4182280313278405e+01  4.2885369542269460e+00 1.5503538241729027e+01 -2.7249578860461993e-01  2.5132463750633338e+01 5.2591922446337186e+01 3.2505570098639573e+00  -8.4505411017498488e-01 6.3425333794109008e+01 -2.2236954377213024e+01  2.1418514333141751e+01 3.5882219143062407e+01 5.5037504251643501e+00  1.5912580896989448e+01 -1.8722019853737034e+01 5.5422743346504355e+01  4.0907699650905030e+01 -1.4951186605449871e+01 3.7892675835672719e+01  2.6984340110850773e+01 -2.7802291324366514e+01 5.1159260092171266e+01  3.9910584400073379e+00 -2.9792770676270259e+00 5.6091175290247392e+01  5.2827201590580430e+01 -8.0116319422589353e+00 6.7962867178591679e+01  5.5255877544670859e+01 -2.7147970579704563e+01 8.1042067231379349e+01  4.9380394119409175e+01 7.1224458556184814e+01 2.8399422073265480e+01  3.1693942049978290e+01 5.1309550674595506e+01 4.3083350471912141e+01  6.8462795170265622e+01 4.3556776318870547e+01 4.1169636043639287e+01  4.0202197087772049e+01 4.3627886626906076e+01 4.1267533380380584e+01  1.2039858214129679e+02 1.7938760855692328e+00 -2.6754702959812874e+01  8.6257498169348281e+01 -1.2911529671306663e+00 -1.5335495474378451e+01  1.0981025161694274e+02 3.6837313748024418e+00 7.4368479277268973e+00  9.0216421799232975e+01 1.1592227422768275e+01 4.1864664930955504e+00  2.4042149068980624e+01 5.8562165289131528e+01 7.3621263890026484e+01  -3.6304375273247107e+00 5.3392427455065167e+01 4.0535632854516876e+01  3.0269591493284331e+01 5.9625416341647615e+01 5.2472629453420950e+01  4.1209509087087817e+01 2.6043140808139622e+01 7.9605342130429957e+00  4.1637169799836478e+01 2.7505196966379110e+01 1.1913920379401921e+01  4.9495103727965727e+01 1.8670962810553387e+01 3.2223380058088398e+00  5.4465637948013644e+01 2.8128441542904309e+01 5.9407907375472178e+00  6.1238073721169066e+01 1.5983490240904313e+01 3.4603007354929368e+01  5.9007206368603597e+01 1.3993812299502711e+01 5.4383794417396672e+01  6.8806977057758345e+01 -1.7000300933425037e+00 5.3577595062030369e+01  1.5241955738537288e+02 -4.6617408555181719e+01 -6.9442170454009855e+01  3.4584190185586552e+00 1.2117240749448454e+01 2.1918766681902294e+01  1.3174007069716675e+01 9.9436747843118685e+00 3.4310148326985541e+01  2.3329396245765231e+01 2.3395427463014400e+01 2.9544530229052697e+01  1.4766750426446127e+00 1.3008495529043222e+00 3.6442220721333998e+00  1.0089122184329362e+00 -2.1195902038948938e-01 1.7394754115298368e+00  1.3887265791241059e+00 -4.1447944658255903e-01 1.3805198370712513e+00  1.3757491863071944e+00 -5.7796822346119592e-01 3.8284707744674793e+00  1.3738152040242358e+02 -1.4603363550647201e+01 -3.6194403796943973e+01  1.2449894846554717e+02 -2.8370164485622245e+00 -2.8314901378727132e+01  1.2379194203159562e+02 -2.9462540598705750e+01 -2.0587689529911174e+01  1.1877330282645215e+02 -1.3277406067973033e+01 -5.7048212111636069e+01  1.3137409334278161e+02 -1.6778319463305282e+00 -4.1353147612884086e+01  9.4814424588624824e-01 -3.1990575158569698e+00 7.9524929816873051e+00  5.7140765160334634e+00 -7.5639889877570061e+00 3.4908969519903321e+00  9.6180024525167681e+01 5.7279064306974149e+01 -3.1725988975609969e+00  1.6979881406868162e+02 2.9869220434193537e+01 7.4089607909086066e+00  1.2296740637992727e+02 6.0158071475616950e+01 1.2628313432068350e+00  8.8649509396798564e+01 3.3785669223961598e+01 1.5794776583967984e+00  3.9115189472990842e+01 7.4309195451806161e+01 1.1061095879974070e+01  7.7772870876221432e+01 3.8930414542789990e+01 4.0486104332183153e+01  1.0307507335422534e+02 1.3985413098941488e+00 -4.6527737383370052e+01  7.1005491365234079e+01 -1.3846313037116728e+01 -8.4431587503659628e+01  5.4629422543799393e+01 -1.0918686401786974e+01 -3.5583697030106002e+01  8.8894545816231769e+01 -1.2751759874565358e+00 -2.6635039765009687e+01  2.8888659702405839e+00 -4.9741711189779630e-01 1.8016538042585289e+01  7.1913505540368421e+00 -5.1779001623028025e+00 2.1260386122357016e+01  -5.3273752632639962e+01 1.2202204719687048e+01 1.9606130280490987e+02  -2.2375890842535213e+01 8.1940039922371426e+01 2.3948697016392777e+02  2.9931538630215748e+01 8.1248083792924461e+01 2.3672521908606683e+02  5.1608920877979806e+01 2.9245219281427246e+01 1.6325336386969263e+02  1.1350390825054228e+02 1.7935179240937174e+01 -6.8064261589594077e-01  3.6912599948283329e+01 8.7846885551885379e+00 -3.4213985719146391e+00  3.6343013208352950e+01 1.7067386325222508e+01 3.1498153412395130e-01  4.4969814152133821e+01 2.9471669352221305e+01 8.7876759559528423e+00  1.1343473489908237e+02 2.3015605689096976e+01 -3.5911050651889141e+01  7.9359552066560937e+01 -1.2573783135250915e+01 -4.7998673308175043e+01  2.7967005221900610e+01 3.1602674947367994e+01 2.2082186112657741e+01  2.0192505146719999e+01 2.7492554833061980e+01 1.7522431480941858e+01  2.2142586254603735e+01 3.4704449847938008e+01 1.3401017256920422e+01  2.2275589150851559e+01 3.0322475315927960e+01 1.9746907143451288e+01  1.4204528999479724e+01 -2.1170840956776086e+01 1.0259673780232195e-01  4.2416950567364772e+01 -1.1568030827196980e+01 1.7139026136267159e+01  1.5369937823196770e+02 -4.5280544671237060e+00 -4.5820580580273145e+01  -9.6490411427228331e+00 4.5060829439574832e+01 3.7666350967548780e+01  -1.2593813542226915e+01 2.2637356211903153e+01 8.2280831381054966e+00  2.3985743537811666e+02 -7.2980538328212177e+01 -3.9058607886745207e+01  2.9963284193118721e+01 6.9451888375507053e+01 8.8408497484075355e+01  3.7815598133123601e+01 8.2256493937205221e+01 3.4340085251216841e+01  6.1952230789783789e+00 3.8311660811825689e+01 5.2085447086881862e+00  3.2456822062606938e+00 1.1345327865311259e+00 3.5027065314253911e+00  2.5493722819232971e+00 1.7172039267898338e+00 4.5855222254381820e+00  1.3057417462328228e+01 1.9284481652520483e+01 1.8868784730666952e+01  1.1233948114488430e+02 -1.4764738253648765e+01 -8.5862548840681882e+01  7.1932402957265339e+01 -1.5777692640222989e+01 -1.0478929728763758e+02  3.4613665194664077e+02 -5.1997445421708797e+01 -3.4822580020996838e+01  2.1236462853565513e+02 4.4558087689207531e+00 -3.4485945214523298e+01  2.8589118119193955e+02 -8.0197058935890226e+01 -5.6559133110598268e+01  2.6014698930961384e+02 -4.0813837713127270e+01 5.7554735322619743e+00  5.6408250491887365e+01 7.6308396081184771e-01 -1.1577443654491463e+01  5.2065886390328096e+01 -6.3948637527638030e-01 -2.1397971167020700e+00  6.6456964185874497e+01 3.0381954026668239e+00 -1.4348053754564882e+01  6.6759968596225747e+01 3.5035860648228097e+00 -7.5743113459345759e+00  2.2412310037320484e+00 1.6511473296685608e+01 7.5728099733023129e+00  1.0553922918971379e+01 2.3372999895143522e+01 9.0698657122778119e+00  -1.9583493084661466e-01 -8.5321893275805999e-02 6.5084333954955031e-01  -3.1326262597690768e-01 -6.3082776763340231e-02 2.4314728739240729e-01  -7.8435775075018140e-03 -3.1554373594177559e-01 1.9100099383344499e-01  1.6506022341900833e-01 1.1164937675130354e-01 -3.3686981668180592e-02  6.3495597206514248e+01 8.0533506422026129e+00 7.2414394691795678e+00  5.3413572766341410e+01 1.4695917403156125e+01 1.4127738258849137e+01  5.3223337253864202e+01 1.5122676363409951e+01 3.9996503778529697e+00  4.7416034168212455e+01 1.0035650839867113e+01 1.9166687588744242e+01  1.9382376372104275e+00 -4.4315681830992357e+00 3.1693557866331945e+00  -2.6060831592515643e+00 -6.7424195650130256e+00 6.0588671626827537e+00  5.5019932592655636e+01 4.8923053729367609e+01 2.5752081103825166e+01  7.0553766441206434e+01 4.1514973546461512e+01 1.1193563732913544e+01  7.8345303846588209e+01 6.0323084454182840e+01 1.1264717276991028e+01  8.1731641071143628e+01 5.3706114522288395e+01 2.3804084761340068e+01  -2.9474303085594622e-01 -1.5776930891386822e+00 1.0485457803404657e+01  -2.3411222136100776e+00 -5.3120391522982562e+00 6.1382748986400975e+00  -6.0380275673706167e+00 -7.8323163199959662e+00 2.0507534145389542e+01  -6.3830423514640508e+01 -1.0984720352010978e+01 8.4954188452962569e+01  1.8876240829642200e+01 -2.7010129108754604e+01 8.5776792155338001e+01  -3.0486837103994649e+01 -4.8436916818046134e+00 2.0997926112873532e+01  1.2729061078837549e+02 -1.1232432176345299e+01 -3.9167823811069461e+01  1.3172943826637496e+02 -4.9296475385886014e+00 -4.5697345165371146e+01  1.3550309445612365e+02 -7.4736870747743227e+00 -3.7161335502137838e+01  1.0154702230613379e+00 1.1909080185665950e+00 7.4241787056083428e+00  2.6339441830798473e+00 -2.8005106194953711e-01 9.5486026199970180e+00  2.0385251719599779e+01 2.9652178259764817e+01 2.5467781132786349e+01  2.4316942640480434e+01 3.2231015756982373e+01 1.9515451427377869e+01  6.0220436473722849e+01 1.4618365965936560e+01 2.3123823426377261e+00  8.6008477114215040e+01 2.8331501465112691e+01 3.5226822232016897e-02  6.1957737842565258e+01 2.3673395439765667e+01 1.8476658935005275e+00  7.6280003406048905e+01 1.0105440415284683e+01 -9.7772039665252652e+00  4.2232118836549603e+01 6.5267433859969714e+01 2.9417033152742043e+01  3.1731894016479249e+01 5.1424839647329463e+01 2.7471325181966154e+01  2.2653365656969484e+01 5.9688790544583938e+01 3.8564506171463762e+01  1.4886180447029171e+01 1.2454371579292868e+01 3.2309282994516543e+01  -9.0277663308669709e+00 1.1477667298108834e+01 1.8344076437934870e+01  1.4299904582939822e+01 4.0134959985719135e+01 -1.5342339790685082e+00  1.4651012873867952e+01 3.8660196542126208e+01 8.5785767797405619e+00  7.6218199527726549e-01 2.0469218303583418e+01 -1.2320317840163706e+00  2.5342485604166299e+02 -9.1845387266050779e-02 -1.4391065285585626e+01  1.3608006840120910e+02 -1.1571823926653341e+01 -9.2456428752207813e+00  2.6686907344960559e+02 8.0721125347951798e+01 1.7075469966420977e+02  1.8725410263291965e+02 -3.1623696694595246e+01 -2.3710472254420569e+01  3.6516540481273140e+01 6.3084156565664514e+01 1.3011032844238581e+01  2.6126273526586747e+01 4.1498266979488982e+01 -7.7472178944909258e+00  4.9376297322414423e+01 6.1904615570925429e+01 -2.5967389365819349e-01  7.5484430322731688e+00 1.3392790809507469e+01 5.0643651767046043e+00  4.7113841049554331e+01 3.1099023985325516e+01 1.8986202111443180e+01  1.6581468980584273e+01 -4.5932222883862925e+00 -3.9261047794902977e+00  6.0246363105927596e+00 5.4691223915278213e+00 6.3632630930334311e-01  3.0872377736803813e-01 -1.2672831936228754e-01 2.3208234370744005e-01  1.2634403148196649e-01 2.9159971033504189e-02 3.7229990788568024e-01  3.9718785639141863e-01 -2.0809428307338779e-01 3.6444850420154895e-01  5.3864311152955546e-01 -1.0356274520930879e-01 2.9063625516969677e-01  1.7473476284671300e+01 -1.4601810417293834e+01 2.6976209302117386e+01  -2.5677628525390456e-01 -2.5305720745502108e-01 5.9283203755509528e-01  -4.1622727177552443e-02 -9.5111301061673120e-02 4.9353432486553872e-01  -5.7417204312216452e-01 -2.1167050122991704e-01 3.8508935458165172e-01  -1.1815103378441427e-01 -5.9140137738077123e-02 6.9300590285942942e-01  1.4493623899729482e+02 1.5138777391064947e+01 8.0883993486415832e+01  2.1514083529945515e+02 6.9870131786842222e+01 1.8964372861728052e+02  1.5017616672365813e+02 5.2303849669108189e+01 9.0861141329463820e+01  -7.4471676713620125e+00 6.4132952615690426e+00 4.0024932146324836e+01  4.8608152638492086e+01 -1.1606683497595343e+01 -6.3597682199939394e+00  5.3376672956178545e+01 -4.4422543776876950e+01 4.1892440727989488e+01  3.4509593241079529e+01 -4.0734694589501226e+00 2.0642909299118934e+01  1.5160327076710893e+00 3.7021700272829799e-01 1.6342756713511611e-01  1.1998038028177737e+02 4.8708066132515405e+01 1.7771314000202005e+00  1.0782276558086980e+02 3.3795867143843559e+01 -1.6087811231192855e+01  1.0077