<?xml version="1.0"?>
<VTKFile type="UnstructuredGrid"  version="0.1"  >
<UnstructuredGrid>
<Piece  NumberOfPoints="694" NumberOfCells="2235">
<Points>
<DataArray  type="Float64"  NumberOfComponents="3"  format="ascii">26.315817 3.982372 39.332775  27.599375 4.383019 39.990357  27.58300390867939 2.795118367817658 38.30617708128289  28.87458468448428 4.307851879040236 38.4435994241211  23.727428 8.835241 39.990357  24.795902 7.25046 38.957478  23.162247 7.105966 39.014565  23.57434325475165 9.000645388631202 38.07843194146434  21.235252 1.307153 39.990357  22.538738 0.695649 38.940804  20.639017 0.6159210000000001 38.206322  20.48744366509122 2.629695698920639 38.59326174240199  37.279232 24.819668 28.961367  38.54130521052253 24.56614868561093 31.38826562161311  38.33652209870549 22.66262965472055 29.63475954978686  39.95923699999999 24.817934 29.238529  28.28807373383377 13.49579096673875 32.84474124294095  27.290699 12.759163 31.179472  28.298815 12.903837 30.984324  28.13751973518968 11.71026010806883 31.73371741403241  28.705898 10.335938 35.168785  29.816177 10.938348 34.575485  28.673845 10.173727 33.999218  28.05134429106204 11.67204946717867 34.87214406759188  26.614618 10.881027 39.990357  27.409657 9.263548999999999 39.398373  27.24327126892229 9.817335996067126 37.70662796560374  27.98234874397778 11.27788221252549 38.70361233348778  28.154829 5.388969 33.965862  25.86339869709138 6.149819401226686 33.59340898363622  26.52290276609117 5.077670477286738 35.39756701259837  26.41130585203724 7.493997705671475 34.70529868406999  27.17363707100178 13.80598071958275 34.73124428154895  28.66374631921208 13.45480856006256 35.502294338688  26.32867622651415 12.55819146253374 35.75869553804386  33.62254529472886 14.92865752345665 32.80806568508215  34.38660377831111 14.94995717686327 31.07821058419421  34.17658941579657 13.56169451682123 31.90395438525047  32.69573522357092 14.60460425539633 31.93325867970119  26.24228520852094 4.086211330696111 37.47597715613198  25.81251735132692 1.76798991749219 37.23946213247029  25.99394432742299 2.389771660531963 38.73969209196266  37.190998 14.242632 31.223286  35.943092 14.502272 31.92523  35.86669466877547 14.72731496707851 29.85278068024012  35.31308313036062 13.15751189396104 30.39798971878442  38.56933054512754 6.800926044310161 30.72389955311796  38.188908 5.282902 29.523901  38.58383858008845 5.131501725264576 30.81235851566306  37.407551 6.230077 30.130457  33.481281 15.794911 35.848255  34.052612 15.386894 34.300491  32.6019832158516 14.05910567574976 35.88978301144692  31.92142654770662 15.86163673369643 35.26788520504912  28.81151 7.50783 38.290119  27.51997600103251 7.503177070046945 37.89107867154952  29.109997 6.358413 38.503403  27.88378 7.329907 39.072365  29.309536 4.606772 36.029114  29.72506 3.25594 36.232712  28.31757182815704 3.131416595107289 36.50977775725433  23.959417 5.847709 38.612427  22.627432 5.821682 39.122414  22.62880125732515 5.241752043228775 37.67335728015745  24.642944 7.800531 34.115471  25.463104 7.360107 32.804066  31.69956254248148 14.44667297204943 33.33556807518377  33.22960131290565 12.95845390158515 33.56011460732299  19.331896 6.950016 37.73209  20.25189488448597 6.610723253897681 35.95933933273123  20.48039668878346 7.746026545857105 37.74818777504506  21.28659668259365 6.939187716109648 36.67906938352133  23.641129 11.802317 35.702709  24.882618 12.017656 35.162289  24.349495 13.12237 35.126312  24.62371026401215 12.69674720141139 36.81772324188206  37.50816 9.499226999999999 36.304531  39.04343 8.941055 36.435223  38.657623 10.319695 36.326557  38.4780181254022 9.002724445734884 38.18861174115882  24.654318 13.307939 39.990357  26.602053 12.905472 39.990357  25.17588 11.523697 39.990357  26.06220343740465 11.56999229659889 38.33814953467988  38.150952703833 14.40805456160015 29.30626151592014  37.0888530462326 12.75019107777044 30.6257153914126  38.418999 4.211218 30.137329  37.454517 4.540942 30.460093  24.07073930966418 3.185145961031509 36.97704842628961  24.237766 2.941509 39.990357  22.40567515800198 2.802789300076973 38.2939741976155  24.31765871711879 1.696046253826013 38.26660409839959  25.63331665228358 14.17031921870796 35.77781542031118  25.555899 13.00423 34.467579  23.111506 12.083866 39.990357  22.885418 14.037459 39.371601  23.84113903654725 11.42296054006373 38.19635701998983  37.40773 11.205506 36.081978  37.2876825395178 11.11069479593951 37.94425001250352  24.17359 10.501925 39.990357  25.55307147290346 9.0988376821748 37.62659447015477  25.495432 9.607146 39.990357  20.006428 11.479836 38.02507  20.426605 10.778785 36.826153  21.58349692070729 11.39019385471427 38.1730445068747  21.07027014138507 10.04314049541114 38.78387108963221  39.95923699999999 22.973331 30.2651  39.95923699999999 23.198542 28.3286  39.95923699999999 21.648863 29.204803  34.40633066874845 11.54410089534149 34.25809750386013  34.6918933916285 11.76548813708003 32.95650092066118  36.11747 10.430202 33.999577  34.53487 10.339671 33.924484  26.330366 5.081942 39.082741  27.79437920088307 5.275840197493826 37.08058457606105  23.02018 10.351408 35.916107  21.836966 11.694723 36.130104  21.4445 9.763583000000001 36.049961  33.28256721978099 16.22195454144551 31.69057718371057  31.30102861790414 15.58417098167122 32.18141396003062  32.54723558361061 16.30108011187064 33.17847532761584  34.388557 14.229102 35.336952  38.464802 12.259798 32.017288  37.82328624984481 11.33242262433563 31.42104483038538  37.856758 13.30654 31.483194  31.893021 15.627348 30.880547  31.734411 14.390552 31.226053  28.3380532840869 11.92359002608114 33.48771275646504  27.82553833939153 10.51600318618027 33.73630204582852  38.53709547910821 22.54977671630008 24.49695825708844  36.85804 21.700514 26.212191  38.3312883835432 21.11276873348658 24.92301330654462  38.3877179365124 22.0255223995061 27.13669764847062  20.124662 10.768286 39.110733  36.479931 7.477303 39.066631  35.922504 8.521523999999999 39.167107  37.054192 8.039289 39.990357  37.55135533938321 8.17301880329455 39.00329609757745  39.95923699999999 18.77788 28.819061  39.95923699999999 19.820002 27.077719  39.95923699999999 18.38397 26.75522  38.22583247386044 19.97890611547634 27.65600048208363  39.127426 7.45883 32.717857  37.85006 7.030653 32.392895  38.19706 8.554944000000001 33.121403  38.30555906764393 8.064575209213743 31.62779639367779  39.378353 9.377862 28.474737  39.95923699999999 10.883289 28.743399  39.181179 10.434602 27.624483  37.95213620316356 10.79783600267351 28.14353815245956  38.02075007800698 10.79419348992309 29.91636710103581  39.95923699999999 9.831414000000001 29.859922  26.280455 0.8462809999999999 35.897881  27.786783 1.25885 35.575603  26.577959 2.12204 34.333088  26.88943507574615 2.953853778705445 35.88461282320058  22.835718 1.995106 39.990357  24.010715 1.188285 39.304119  34.825932 15.40916 32.652832  33.057865 14.365431 30.323959  22.338072 4.389543 34.172195  22.695881 3.18992 35.031429  23.525188 3.41809 33.809746  24.60598505353484 3.754623089177691 35.25786457172264  38.49618994958684 8.565050101553609 30.12900667545662  39.95923699999999 6.932814 29.47644  39.95923699999999 7.28196 30.75757  21.695993 5.887272 34.288208  21.788589 7.384339 34.95879  36.200062 19.50654 27.589649  35.984699 18.394869 26.188019  37.9780103386193 18.95513644606047 25.9959857537886  37.5281170502085 17.54712638294552 27.08703695518506  21.505327 7.039671 39.990357  22.21104 8.06249 39.990357  21.70856157234282 7.371007366675108 38.32794341784172  21.07238889250642 8.586691003750776 38.74438098076556  36.663368 19.575186 29.359795  37.79356014363042 18.29144693596718 28.75203767456901  31.871756 12.046036 32.355343  32.410629 13.215726 31.234072  30.958 13.573675 31.806128  37.722488 20.206169 31.863165  37.098263 21.768391 31.762402  37.685837 21.338495 32.752159  38.61364679668458 21.23025417759808 31.1840380957827  26.859821 11.299393 33.458618  25.953562 11.624817 34.485931  27.19298655732162 10.59834345726289 35.18638977670044  24.68078222883564 6.373146786247706 35.03696168948491  22.75511266472821 5.656721938583377 35.59164659251294  24.59141998436874 5.598722295811482 37.17083540359162  37.03265 22.737694 29.20442  36.99147 22.530645 30.641256  37.08437 20.841537 30.307344  23.456806 4.568481 39.06245  24.955709 4.457681 38.949146  39.95923699999999 17.085016 28.052607  39.95923699999999 16.342072 29.752256  39.95923699999999 17.598867 29.415167  38.53298354927006 16.15157334971153 28.99892980409073  39.33511 8.869249999999999 32.514343  26.05909694942783 15.84523994166076 38.16203612288227  26.32550906683497 13.63732356214797 37.75876658698955  27.596173028579 15.55986442476633 36.24736015321152  27.85980094434145 14.03526041786375 37.16472694978775  23.97990488288451 14.38252635370706 37.65315186144396  32.833839 11.210443 35.347462  33.099438 10.723976 34.049934  23.104342 6.84478 34.308735  22.968966 5.550242 33.384743  24.40657631033097 4.880800591515816 33.85075163023371  28.586576 8.5878 38.743473  39.95923699999999 8.727613 31.044952  39.95923699999999 10.092935 31.35218  38.24435740152282 9.635807269335679 31.79839486551243  35.217564 13.087946 34.22686  34.876472 14.169645 33.563377  34.293251 10.082545 32.48428  35.72516296823668 10.87111940509209 32.47851450856484  39.95923699999999 19.654356 25.346203  28.086142 5.778072 39.266079  26.32171515790868 5.884985340270235 37.81718903696979  33.913269 13.215519 39.990357  33.664955 11.804871 38.98616  32.604668 12.17375 39.990357  32.83506793129521 13.1498475935794 38.55001107851035  36.80258657750309 9.587535897757473 30.65204307410149  35.87468543592297 11.05119313508493 30.92642903831351  35.89774475219677 10.92823992107082 28.75246371103216  25.341339 9.119457000000001 34.336575  24.69112 10.403205 35.146778  24.427147 8.887026000000001 34.937572  26.18429035006412 9.487578477273528 35.63457184822275  22.2347860856257 13.03763377936692 37.609245384083  36.733311 22.011177 24.81852  38.55545297181903 20.732036022893
[...]
<PointData  Vectors="u"> 
<DataArray  type="Float64"  Name="u"  NumberOfComponents="3" format="ascii">3.9803337384930913e+01 3.5893021806403034e+01 -5.5445071456048298e+00  1.2767478657691113e+01 2.2939825271505217e+01 -3.9768692351747514e+00  2.1884554778556520e+01 1.8468554587123794e+01 -5.2012480554436236e+00  1.0732932338494650e+00 2.1534319733737384e+01 -6.9400108394185196e+00  7.0475352437850972e+01 5.7997015482473806e+01 1.5162929565880439e+01  5.7487669929564731e+01 7.7117990397368047e+01 2.6653445087920730e+01  8.7658148795690067e+01 9.8921683404720568e+01 1.1908984245837356e+01  6.5225106740380909e+01 8.4237717171407255e+01 1.0338435033119955e+01  1.0182207108858103e+02 3.4353712274385519e+00 -5.4476018646787994e-01  9.2210902034463672e+01 -1.5300224807861948e+01 -1.4758212810933511e+01  1.8811659757632663e+02 6.7835213594985397e+00 1.4102298529766422e+01  1.2701254618562221e+02 3.1696832843279484e+01 2.1357930300032084e+01  4.3553747990270546e+00 1.4295411108029104e+00 -2.2168386973216787e+01  6.3058031781636053e+01 1.3501756398022429e+00 -4.3293941182785012e+01  2.7730178644696998e+01 4.8079586960131921e+00 -1.6050807735272155e+01  3.3895401169397573e+01 -1.8599126389554968e-01 -1.3146049063920998e-01  9.5995880666628395e+01 6.4688040577059894e+01 9.0302079261049801e+00  7.8526452121281407e+00 1.0808499697680679e+02 1.0440915662179826e+02  3.0141347918437383e+01 1.1153799289393497e+02 1.3062229802203640e+02  3.4209139180371288e+01 9.7869149586233050e+01 8.1945719566921952e+01  1.2450670538927886e+02 1.3722794000181077e+02 -4.7579342409398620e+01  2.3631020505716961e+02 9.1683830365106203e+01 -1.0531964652469235e+01  1.1862082549956796e+02 1.4338704445179374e+02 1.6919170988815466e+01  1.0185969994916852e+02 8.8166025507753602e+01 -2.5952684366881332e+01  6.4168782373238543e+01 7.1803360072571522e+01 9.0174684428596557e+00  3.4452299020624366e+01 9.9066847088008728e+01 1.4145235830114089e+01  4.2920076185917857e+01 9.7077522805280353e+01 -7.8429623448841115e+00  5.4181397299740077e+01 8.8492712831571922e+01 -5.7305757901853562e+00  -5.4631746985408727e+00 4.4630413627920632e+01 -4.9660972501505469e+01  4.5599073740387546e+01 4.4110808058408530e+01 -3.7047392251728610e+01  2.8315857207716657e+01 4.3640436167387556e+01 -2.5061645641482880e+01  3.7540052212788346e+01 7.3091405564788801e+01 -2.2391911302484797e+01  7.8647675209284969e+01 3.8813145037998638e+01 -2.9493407885880806e+01  1.1947143990170169e+02 4.4526764696509019e+01 -4.0605993946775854e+01  6.3317924852197784e+01 6.5628011922348477e+01 -3.0455250744763735e+01  1.1686415403103265e+02 -3.9914923216407018e+01 -8.7148523849672102e+01  1.3358298660112402e+02 -1.6163149778549442e+01 -9.8651553972647207e+01  1.2338966303859141e+02 -3.3455175511573962e+01 -8.1092177738055469e+01  1.4388896761240741e+02 -2.6927880563438890e+01 -8.2364439241126746e+01  3.7006791967315955e+01 3.4921822362670277e+01 -1.2562064176432028e+01  4.1433044671006158e+01 1.2276813913906237e+01 -1.3378730067922936e+01  4.2868245784727598e+01 1.2580814476069266e+01 -5.8898443776011815e+00  1.6323075833985055e+02 2.6096202585607571e+01 -6.3669151738478114e+01  1.4035445026486934e+02 -7.7391275574654008e+00 -1.1573541058890521e+02  1.2676246007077691e+02 3.3171287634716023e+01 -5.4038897536606747e+01  1.0346128530717831e+02 -2.9959215638197905e+00 -4.2951348755240979e+01  8.9237415667962011e+01 -2.8862350547188818e+01 -8.7044249538219098e+00  2.3157642449019118e+01 -9.0709930869138535e+00 -8.3477424939512535e+00  1.6700188824889452e+01 -5.2845580878647214e+00 -3.0179975275910551e+00  1.9314912733272770e+01 -7.9046022177842104e+01 -1.1445649882427448e+01  5.1262048786204517e+01 -9.9063041461896987e+01 7.3707189260785642e+00  5.8047946111819520e+01 -6.7648326392916118e+01 -6.4916264803390675e+01  1.1465414375459666e+02 -3.8079578222434364e+01 2.8513666536978839e+01  9.6124618787977326e+01 -3.5277447123056909e+01 -1.3297248261270589e+01  -1.3725670140491479e+01 1.0217135612377403e+02 -1.3366262941386968e+00  9.7185901768911958e+00 8.7368943019650828e+01 -1.7806765373656248e+00  -3.3566632176739560e+01 5.8932789326088447e+01 -1.6820321670917732e+01  -4.1137668512005821e+00 9.5096537733590253e+01 1.2746757212574720e+00  -1.2671581126011034e+01 2.6008626573339445e+01 -6.4293343021551443e+00  -2.2765161047863525e+00 1.5444519194601305e+01 -3.4106718362401214e+00  7.8408826665481763e+00 2.1498654405157474e+01 -9.1708725204295920e+00  8.7272568701392757e+01 8.2503955013523793e+01 -1.4962242649324956e+01  6.4038083185942938e+01 8.2568342072307559e+01 -3.5955477126454859e+01  9.4697884094563818e+01 5.5055412386768388e+01 -3.9309601235494451e-01  8.1553753423385572e+01 6.1638378055370325e+01 -1.4755050178878033e+01  6.4749271170686896e+01 4.7808987859409299e+01 -3.5268774416338893e+01  1.4487064894579797e+02 -1.3138617107742832e+01 -4.3216040601357427e+01  1.3853173591928689e+02 -3.8381135513850822e+01 -5.2056380537707931e+01  1.2575072086995890e+02 1.0019781383911214e+02 1.1324319359086347e+02  1.5042143268962855e+02 5.6269938860750628e+01 7.5369291866869602e+01  9.4829036745794085e+01 1.1362323929715348e+02 8.2649748679051044e+01  1.2548957629549787e+02 7.7462264192947885e+01 5.2372945254909730e+01  5.3730232843996411e+01 8.5674893563722435e+01 -2.3879399036737539e+01  5.8349876901474396e+01 8.4335620414250101e+01 -3.8223709796759358e+01  4.8555165797182717e+01 5.4259419097871827e+01 -4.1258504177691563e+01  5.2011753397304631e+01 6.4602243230912052e+01 -1.9417358813322629e+01  1.0511416015342876e+02 -1.1252290072500551e+02 6.6600743538826981e+00  4.3857671850456050e+01 -2.3829801019119589e+01 1.2533778573554912e+02  1.0633973026833876e+02 -1.0677830117163133e+02 5.6229472787504726e+01  1.5208498182780531e+02 -5.7817254631339644e+01 -1.0161308230511022e+01  4.3731354259834760e+01 5.8943425463095302e+01 9.1541369930577143e-01  5.3391128595365402e+01 4.8112016264239983e+01 -6.7452768828338376e+00  5.2618704435387350e+01 7.0948444484933333e+01 5.8433915283285076e-01  5.6591308547902877e+01 7.2766871099232162e+01 -8.2609491690361594e+00  1.2502783589895390e+02 6.3932235476357199e+01 2.3168394054156143e+00  1.3273862380745803e+02 -3.9950659429467845e+00 -2.5264798689264449e+01  7.8837332487576157e+00 -2.9987853308306849e+00 -3.3458865712946411e+00  8.9930004221092619e-01 1.1032340310382935e+00 -1.6797093528865106e+00  6.8759748757023203e+01 2.0420972144716789e+01 -2.3488010220166089e+01  7.8066641213005255e+01 4.8282957163913842e+00 -4.4360423233121056e+00  1.0056367916517191e+02 1.6969978637011788e+01 -1.1917725146012760e+01  6.9376412538761159e+01 4.9914085943166269e+00 -1.0100937493400616e+01  5.9286614775502031e+01 3.7983540592975011e+01 -2.2223334274126898e+01  5.1494223851591265e+01 4.8145926871135451e+01 -5.6542525065540282e+01  5.1118995192411049e+01 6.5832753416103714e+01 -6.7612231095326942e+00  4.1510617566799418e+01 6.1594208218303407e+01 -2.1209813842312517e+00  5.1912807625172981e+01 7.7388476221886890e+01 -6.7258364253153262e+00  1.3934345083508765e+02 -9.0486888581775020e+01 3.7892464221523049e+01  1.0895038943658464e+02 -9.3537876783655292e+01 1.2048109422806613e+01  5.1561449735659984e+01 7.3591911303513598e+01 2.3037428306990831e-01  5.2149803606749856e+01 8.3492994694271871e+01 -2.1528012607268399e+00  5.0741157616876890e+01 7.2475879426496633e+01 2.7450318258774193e+00  1.1269999226599966e+01 8.5084091917803619e+01 -6.8925490418800202e+00  1.2174509186672914e+01 1.3704589711281147e+02 3.3668563332288763e+00  3.3900723878548384e+01 8.7234130470118487e+01 -2.4114149889683985e+00  3.7924187412430229e+01 1.0024149376580284e+02 1.4717280762763171e+01  5.2912314491543263e+01 2.4391351034226552e-01 6.3134639248930213e+00  3.2162793536990726e+01 4.0245819792114240e-01 -1.5116109450755699e+00  4.5424375953399085e+01 3.1660927840575240e-02 -7.6178002300923447e-02  1.0403602885234035e+02 -4.2495596666829698e+01 -5.7909786362151095e+01  1.2389182976817209e+02 -5.1586070620876235e+01 -6.1415212990426923e+01  1.2741195364118505e+02 -8.4112509369744316e+01 -1.1455554557814591e+02  1.1796884502215039e+02 -5.4611688218367370e+01 -9.2272141229004745e+01  2.8319368303444758e+01 5.4503924739912158e+01 -5.6413268583909586e+00  5.8689657562254345e+00 4.4149785898246051e+01 -9.9377233822166584e+00  6.8159846817031962e+01 1.0786069405247899e+02 -1.0752074366986932e+01  4.1387505412656907e+01 1.0050738869367359e+02 -1.4419688186765077e+01  7.6331881080422818e+01 1.7594106806524519e+02 2.6270741199448775e+01  1.3706547873191673e+02 -3.0341066010920542e+01 -9.3597282001118216e+01  1.4658823147631557e+02 -1.1161873214051072e+01 -5.7954097695511990e+01  1.0605192660769244e+02 -3.0043236084809127e+01 -6.7631125609096486e+01  6.1561760293002912e+01 -7.9950547488712942e+01 9.7055424768174223e+00  1.0986617566417722e+02 -2.6352413326224383e+01 -3.8753532774518220e+01  1.3765239110977242e+02 -3.4794215777297453e+01 -3.1521458159155838e+01  1.3150782374138365e+02 5.1530242748722150e+00 -5.5720853615638944e+01  1.5711361125427260e+02 -2.3019482161777589e+01 -7.7832347247226693e+01  1.7636181854990787e+02 -1.7769136335456839e+01 -8.6161746082411113e+01  1.0220360339221334e+02 9.0791550602529455e+01 9.5817312076454275e+00  7.2760482363661964e+01 1.1570930329903202e+02 -1.6391608675402125e+00  2.7251837219510296e+01 -3.5750373947830349e-01 9.3667591682209732e+00  4.4239745537996411e+00 2.4605250787183977e+01 -3.3689579333478483e+00  2.6289805058246095e+01 1.4247609823586270e+01 -2.0387738859824385e+00  2.5291775917139383e+01 1.4727026737478749e+01 -1.6917892109913470e+00  1.6811324386945927e+01 8.6787960544079709e+01 -7.7492670278335689e+00  2.3386411585251935e+01 -3.9867597148018177e+01 -2.2383022047249677e+00  4.4321910376059307e+01 -8.7290867327306657e+01 -8.9969917347046824e-01  5.0773853551763523e+01 -3.7077826772886183e+01 -3.7494471201159221e+00  7.6462744726601017e+01 -3.7428698197354244e+01 -1.2327105986446831e+01  1.1399555164198448e+02 -4.0840318196678966e+00 -3.3500847962989457e+00  7.6813922104779408e+01 -1.4465975123678996e+00 -1.6557315206894128e+00  1.3001495201293767e+02 3.8086977574137421e+01 3.0027633483846522e+01  5.7366083023838634e+01 3.9610947602363439e+01 -1.0931778659285470e+01  8.5916129633326847e+01 -2.9071330614485007e+01 -4.1293496845458549e+01  5.8695986963419280e+01 -7.6860001415927101e+01 -5.8303203809602522e+00  9.4894971602918488e+01 -8.8521340445529532e+01 -3.4066974695321413e+01  1.2031452460798106e+02 -7.1590028403363078e+01 -1.2394084273300468e+01  1.4084629831979350e+02 1.9513585347148368e+01 2.0067589616877626e+02  4.6501319032665322e+02 6.3876122766764453e+01 2.0762906638871416e+02  1.2109256833810515e+02 4.0817359105520062e+01 1.6367799102062980e+02  1.6265822077722098e+02 2.7486755414564133e+01 1.3108734626237188e+02  1.8083343030747579e+02 -2.1066795928899374e+01 4.1749926433276748e+01  3.7572414710767868e+02 4.3310576761119748e+01 1.0472610432022111e+02  2.8502302952700649e+01 7.9334136941924944e+00 -1.4221197012889704e+01  1.1669270012455552e+01 1.3904413761623289e+01 -9.8979021922710668e+00  1.4924153870903035e+01 2.7995440063633353e+01 -1.8411850544315115e+01  2.2196486947932033e+01 2.4839219602040782e+01 -1.6763420592481033e+01  9.2760422053879779e+01 1.6907302029693046e+01 -8.4288198775339627e+00  8.4091262636601229e+01 -1.7026632244521964e+00 -2.6909829061712123e+00  1.2316250165610006e+02 -3.4491017329709763e+01 -1.3411764628123797e+02  1.4269308996633100e+02 -3.6928921407946028e+01 -1.1242528144043806e+02  1.2414319031556681e+02 -2.2140767586958514e+01 -1.0184877238987212e+02  8.6230030463104015e+01 -1.0822625612448132e+01 -6.3182293944360502e+01  4.1926920327598445e+01 1.2707755073886142e+01 -5.5748967631487787e+01  5.5677258477630787e+01 2.4389654557229054e+01 -3.4203689228336572e+01  1.7808194617840687e+02 -5.7738590353855088e+01 6.3741908798482100e+01  2.8626549466634197e+02 -8.0146535216195769e+00 7.1382998221785300e+01  2.3869200094959825e+02 3.5975311106958628e+01 -4.0476817258039482e+01  2.5201870514457480e+02 8.4341414324471060e+00 -5.0567404083796177e+00  1.8403649571622691e+02 5.5324190447335113e+01 4.1145891724504139e+01  5.7867544217110762e+01 1.0366696813994122e+02 -5.4697811502396725e+01  2.7096101783804581e+01 6.6245615591465977e+01 -5.7929513648485305e+01  4.8902374695590204e+01 5.4422354481984719e+01 -1.3036456241069077e+01  7.7706323029353229e+01 7.4523792750463528e+01 -2.7713507335313533e+01  3.1336603088086626e+01 1.1809341557881775e+02 1.0116900545119941e+01  6.6168271187609776e+01 9.1377302818888850e+01 8.9654879423642484e+00  7.6452001536507922e+01 9.7596482069774481e+01 2.9849224333153835e+01  4.4007390081381843e+01 1.0368011332133914e+02 3.5257506755104622e+01  8.8915755816850549e+01 1.4363987792210216e+02 1.6449365718027895e+01  1.0845477813458780e+02 7.4273257788009175e+01 -1.6011183211419329e+01  2.1528416012898242e+02 -3.4358821877121159e+01 -7.6848597712470479e+01  1.6832456108592220e+02 -3.5032660478422308e+01 -1.0182477877479185e+02  2.1571648788409806e+02 1.1121966700589573e+01 -6.1155253749031779e+01  6.3863007054497443e+00 1.1510015015114799e+01 1.6759972071371980e+01  -1.6828912706142340e+01 -4.3406067232409953e+01 -3.8364408320427543e+01  9.3435136153669927e+00 -5.4870453319254246e+01 -1.6936586302184573e+01  4.4531875230178564e+01 1.1488755640197510e+01 -1.9734917274078761e+01  3.2754934024031911e+01 1.0877507144827398e+02 -2.8394244209606548e+01  5.9742729605544234e+01 9.4381914132644496e+01 -4.3917165059815240e+01  7.0484935913494880e+01 1.0154229592227230e+02 -2.6710086298219089e+01  6.9421631651800695e+01 4.8983662127626040e+01 -2.3290831269909351e+01  1.2256343883047975e+02 3.5204782217619041e+01 -1.8160540863499499e+01  6.7607254455958909e+01 5.4152269505613233e+01 -1.0293122172666653e+01  -5.8321411014475943e-01 8.5660877561148130e+00 -1.3012825802656570e+01  6.2908266221884697e+00 -9.0339522773508065e+00 -4.0434377657598645e+01  -2.4471637836498972e+00 3.3384578186189167e+01 5.6725329982760266e+00  8.5188728218330922e+01 3.5472983602261053e+01 -3.4343131592619812e+01  6.8855270562503335e+01 4.3225056538642505e+01 -1.4136474721932107e+01  1.9150022410974657e+02 4.3434964264548718e+01 5.6113752463203646e+01  2.8986596518000238e+02 1.1390969729124446e+01 -1.1124316102014265e+02  1.7298800772357316e+02 -1.6243002122961323e+00 -1.3283976524619237e+00  1.6299214814387653e+02 6.1986511235134977e+01 -1.4211120588633001e+01  3.8645569033919593e+01 -9.6365987911399230e+01 -1.2359648668676348e+02  4.7245687292805627e+01 3.7255239586851012e+01 -9.4983031183208162e+00  5.4952173549624781e+01 4.8640077429180636e+01 -1.9027806603095176e+01  7.6105488865312964e+01 2.8044098097011407e+01 -2.7608944293444917e+01  7.0194223025911597e+01 4.2023332665313042e+01 -3.9460818241753451e+01  4.2742917239429907e+01 4.7021395007681200e+01 -9.3576096501429333e+00  1.5537360412470463e+02 -3.2494678166030198e+01 -6.6395961489937771e-01  1.5686588055218238e+02 -5.7240492265995073e+01 -5.5818915240002141e+01  1.2138937749636490e+02 3.7798909773935371e+01 -3.6875792298138840e+01  8.5957880941736363e+01 3.1723883955240577e+00 -8.4491460680432738e+01  5.9433750129930822e+01 2.6011988769434065e+01 -4.7056808554377945e+01  4.9411098988632611e+00 1.0894993172221749e+02 -1.0950505529681738e+00  2.8949691001805860e+02 -1.9310333294069299e+01 -9.8849060108463647e+01  3.7608594639647731e+02 -4.8695204680590656e+01 -1.5692131845209352e+02  1.3170655861636149e+02 -5.7497158205167089e+01 -4.9693907566254339e+01  7.9097696854995831e+01 -7.6693560171536788e+01 -6.6496880936592007e+01  8.7995833893582443e+01 -6.4654496507120655e+01 -1.0067833562752068e+02  1.2354966788001467e+02 -7.1527673228681408e+01 -8.1412113605544064e+01  1.2238414300072171e+02 -6.2739045186541190e+01 -5.0333888710239826e+01  9.0175740682656496e+01 2.1728557684590367e+01 1.6086144836394414e+01  -9.4562767226361952e+00 5.3298200785216416e+01 -1.7034050865811938e+01  3.1043230147434073e+01 5.9822787921108279e+01 -3.8460751401801430e+00  1.3859431103477795e+02 -2.3165802332989095e+01 -6.5806153148276436e-01  1.7521030311813445e+02 -8.5018053779157512e+01 5.4044314660408670e+00  1.2636573106301658e+02 4.3539572549801846e+01 -4.3502585927498536e+01  1.0528789809441898e+02 -8.7052324570272521e+00 -1.1819744838108345e+01  1.2613899703327624e+02 -5.7799889494795394e+01 3.9640557618817724e+01  1.0635505979076549e+02 -4.0415513683320761e+01 -6.4717278268682650e+00  1.0537265464971443e+02 3.5092994904232775e+01 1.1736017730506335e+02  6.7033100217911681e+01 9.4273439264676654e+01 -1.0768200353738695e+01  6.0635504350469091e+01 9.4801243044198571e+01 -1.9646786633878275e+01  7.8919349192337023e+01 9.5675893646841146e+01 -9.7267256426126210e+00  5.3017970673680530e+01 9.3694594841078953e+01 -1.6466712948110633e+01  3.3874558538845292e+01 7.1224770271331820e+01 -1.4398818329446000e+01  -4.5905971798758943e-01 -9.2185210283408159e-01 3.8612072154679407e+00  4.6312999270266133e+01 2.6047000131284868e+01 -3.0316054325702075e+00  1.5620750087914171e+01 3.6537482254349070e+00 1.8746777240099650e+00  1.4107403266522370e+01 1.6376127136599489e+01 9.9920254637965289e-01  6.9129618272233451e+00 6.1249400025747782e+00 2.4370090372603284e+00  5.2998546870770404e+00 7.9914623620954908e+00 -3.7506286256315624e-01  1.4239249870053891e+02 1.7388737313373866e+01 -3.4216628830809171e+01  1.1142266187537101e+02 -3.3589301950952843e+00 -3.6923552179150654e+01  1.8318325290861054e+02 -2.2491656461295214e+01 -1.6502477034855568e+02  2.0364613551191987e+01 9.7600024484272332e+00 -4.6982847781215931e+00  6.9744031856502730e+01 1.7330332901025309e+02 1.2147862079705232e+02  1.7488227122093008e+02 9.6216328234178562e+01 1.4330737028652055e+02  1.1919849302338059e+02 1.1729029744887950e+02 7.0322475989625246e+01  2.9657092737515402e+01 4.2844360128936309e+01 -6.4858143064964622e+01  3.3533941737517537e+01 2.5043428591678303e+01 -3.8313311119281984e+01  3.1700344406887059e+01 3.3852688156539315e+01 -3.7356682371856785e+01  5.6575457849117619e+01 8.4547613807749428e+01 -1.8136738600841273e+01  7.2643853433338620e+01 8.7395643862473761e+01 -5.2090763489316130e+00  9.4675172789577360e+01 1.3250065634059783e+02 -1.1266002093227618e+01  7.6254686116891747e+01 1.2854444476075847e+02 5.9220445937071013e+01  1.0305667301964020e+02 8.9452771793093348e+01 -1.4103686869253053e+01  5.1494996900831829e+01 -4.9948920564151706e+01 -1.3528496048224955e+02  5.5311636120117029e+01 -1.7331535801703730e+01 -5.4138459144397444e+01  -7.2005549664842965e+00 1.1164928562129488e+01 -3.0884151265060362e+00  -5.3757096661088015e+00 8.7264468307408283e+00 -6.8304810293162643e-01  -2.1233854824901255e-01 9.6075885713086944e+00 -3.1786844378689844e-01  1.7987909293715168e+02 -1.3340781396581070e+01 -3.1938473881728715e+01  2.8856950678106237e+01 2.4903552342794740e+01 -8.1260542897209049e+01  -3.1430968595573643e+00 4.5468190644084984e+01 -4.2650601089667447e+01  2.3292623297679395e+01 3.8941011046271889e+01 -4.9425118859291999e+01  1.0875541062578998e+02 -4.7518651244766090e+01 -4.4548200723095285e+01  1.0094658213676830e+02 -6.3453314275775455e+01 -4.0776897096229902e+01  1.5165242303409320e+02 -7.7466515849909896e+01 -5.2664327365865809e+01  1.2766395518321677e+02 -7.0660287597577849e+01 -3.6016342421450169e+01  6.7321674743105561e+01 1.8119515273288136e+00 4.5587281280943186e+00  4.1262789971944926e+01 -9.0831058428247691e-01 8.0783657399614417e-01  9.2513977884043939e+01 -6.9127267184643813e+01 4.5994870503563561e+01  1.0256588143270784e+02 -3.8337162577765540e+01 3.2504216676982708e+01  1.1344446268102509e+02 -4.6102005059813997e+01 1.3990047127089145e+00  1.1391700144790317e+02 -5.9691111876171973e+01 3.8664220386683112e+01  3.5339457188747637e+01 -5.5723981503889830e-01 -2.5854269103713601e+00  5.8156307536100513e+01 5.0928093225069144e+00 7.9043774353953209e+00  6.5857232957081536e+01 4.3090757206480674e+00 1.9933596242967326e+01  9.6050778172295438e+01 9.6607196470822387e+00 -1.0635233269848196e+02  9.1690869061534087e+01 -3.5771673300905555e+01 -1.01875