<?xml version="1.0"?>
<VTKFile type="UnstructuredGrid"  version="0.1"  >
<UnstructuredGrid>
<Piece  NumberOfPoints="650" NumberOfCells="2203">
<Points>
<DataArray  type="Float64"  NumberOfComponents="3"  format="ascii">21.875109 29.693321 27.174175  23.248989 30.274828 26.663322  22.69297733705231 30.52345182579761 28.57738909344157  23.98835938662714 29.4754134603602 27.76430797303302  20.34217540441008 30.94176115095182 28.07369951504002  21.860861 30.978186 27.049639  20.548445 30.556133 27.165522  12.865725 30.549925 31.58032  14.461902 30.250158 30.963356  14.478126 31.437176 31.173027  14.24962610243645 30.4537177766633 32.45074226159696  16.277306 32.788628 34.270859  16.746464 31.885647 34.939095  16.67862486818228 31.28967246771138 33.33260411050047  17.69310615378565 32.34942627569119 34.08534203347786  22.4640234392994 33.58014088754311 29.98313970488231  23.37087909792902 32.4823262364006 31.95363559435039  21.94083982636654 32.00002900060284 31.59040340472844  23.40427245760558 31.83577251959085 30.19039021136287  26.390989 28.178122 30.783493  26.639238 27.888723 29.536324  25.18293509859707 26.83799338363055 30.36774849311921  24.81014412577453 28.79609696063112 29.53874018650403  24.683931 40.003617 24.97451  25.515766 40.003617 26.41625  23.736696 40.003617 26.202049  25.27648990268477 38.27765366193208 26.25954402500962  19.973347 38.413609 24.692127  21.09711383281632 37.34906775640901 25.91782431944432  20.816755 37.494129 24.754929  20.60156288414963 38.87619631313602 25.33120629819327  27.434017 31.666138 38.20916  28.88177741882668 30.90345436053992 36.86611627766306  28.59928463990128 30.36780908794309 38.11223092231792  27.40078342409683 29.8390277361579 37.1575307999409  27.355162 33.915268 32.556149  26.400732 34.647362 32.645981  26.619858 33.260448 32.7169  26.91585322292278 34.19348695988882 33.60429961950593  21.43457 33.210121 26.641903  19.988356 32.844509 26.662355  20.97982 31.969378 27.009714  20.22946160894747 32.7034461898218 28.55547352925732  15.45027667643325 30.87226922128711 32.20934785004458  17.16636996688465 29.5387277954515 32.16741343098334  15.39793273015579 29.63402492507673 32.95770050242487  15.51664503768801 29.51240243249222 31.49252117657681  22.546513 28.543169 34.771179  23.455486 29.575907 35.144863  23.761312 28.266302 34.580429  22.90002603146367 29.90683221075128 34.13910914470747  29.212135 35.763783 35.226845  28.48621078038302 34.32876870301151 36.53832036465984  29.91199906157714 36.09029646074988 37.59932989955602  28.2427632254199 35.7632505130682 36.07222586253793  20.35062682392347 34.08700172483024 27.78408483459883  22.37746799826448 34.60714495523698 27.33512217409289  22.30808498951459 32.12709633886734 28.11058583195292  22.832705 34.083809 35.130569  22.378908 34.983459 33.962234  23.294176 35.255478 35.067844  23.6425309403395 33.84859812884827 33.80515665320294  21.39200042067501 31.52696783169198 29.72767186399146  30.933367 28.905102 36.4692  30.74471003465774 31.17944344946643 37.87617394519285  31.878494 29.898037 36.960106  30.350819 30.027447 35.69685  27.09228711377352 27.19353457830614 34.50864685335147  27.22287503250133 28.93002809561713 34.20056208291102  25.9102252338236 28.4283230655492 34.79564945915479  26.95306131349064 27.97511258897926 35.85421416790797  24.075239 35.568367 31.789471  24.404806 36.241093 32.467789  24.440653 36.663822 31.878782  23.08706369482369 36.76828613905454 31.96849691921849  14.812612045999 28.58212495821817 32.06605385530897  15.008504 28.511055 33.701683  16.22138329873959 27.70317828862451 32.73757911886337  20.353516 31.718361 35.469593  19.460121 32.555599 35.670551  19.07028491248961 32.12013601976455 34.35544065227887  19.3764321387504 30.96326595309137 35.66992884128575  31.633657 27.799097 39.208897  30.37844786143867 27.96248732349785 38.74798472581774  31.562561 27.921495 38.625484  30.786503 27.514391 39.31176  18.60648536484311 31.44730964924047 30.96095201832724  17.813765 33.947807 30.492601  17.090532 32.119652 30.352371  17.88729429251845 33.10744385340945 32.48161297113071  16.40106 36.124668 30.440819  16.08048013819194 37.77917544073343 32.31463994598835  16.78158550567839 35.09826590474599 32.46731937122073  18.044837160901 36.18282624157424 31.56961816882308  24.35137 40.003617 33.478649  25.45268371043836 38.51731039556476 34.04288636423001  25.465847 40.003617 32.369022  25.2401839503114 40.003617 33.96102344469212  21.21623 39.255791 32.367268  22.242138 40.003617 31.160532  21.2000129058788 39.13810806803343 31.22249818294356  21.177788 40.003617 31.763914  21.75598 36.524925 24.734232  23.28587317452247 38.10864192385806 25.02241744190426  21.9406878542669 38.80626946253417 25.31759265527184  26.66077 36.060692 36.917477  27.78977218226306 37.74617309652393 36.33343822248433  26.70060894328935 36.13677054329144 35.49082321466298  25.418585 34.438316 36.261784  23.986685 34.464447 35.744637  25.42956384479739 34.8599412694228 34.38443936701304  24.321908074627 32.95474820849783 34.44607501075824  20.416471 40.003617 30.754599  23.034388 36.681885 23.929689  24.44814280706778 36.2112967816641 25.43502651692506  24.85090133895689 36.67542928601536 23.7614777958816  21.929264 38.604309 33.016991  20.850136 38.477531 32.174198  21.93532277704442 38.46023212032596 31.99861980153095  18.835264 34.373158 29.432938  20.73104729416183 35.46467092235409 29.14497053243675  20.13802096934168 33.20293634983304 31.166004530784  27.826771 37.739586 37.937389  29.83057451391677 38.36344357459843 37.72861865253687  29.25263597627864 37.03392731961733 37.01121453038029  28.65108413579958 38.52889919539574 36.73672183931446  27.141539 31.655117 33.119953  28.489817 31.517935 33.899002  28.016012 33.031471 33.25618  26.27745951014302 32.66471701097587 34.56681153895481  25.508791 37.041122 32.552509  27.123665 37.724049 33.484097  26.27680489874719 36.60949618204793 34.44825739741521  26.896973 28.130154 28.436594  24.99154851074274 27.59430086718082 28.06741722168752  26.254023 29.142382 29.531792  25.55980339550751 29.18624496194009 27.80596119869998  15.123103 31.36916 34.029362  13.378062 30.767908 33.591454  13.780857 32.094486 33.737865  18.819874 40.003617 31.211767  17.803049 40.003617 29.731655  19.75005761597582 38.93874599332658 30.35349848879723  17.60724114186605 38.3571811220804 30.43241652055131  22.74772185841537 37.94136702731735 27.45065137376651  22.973207 40.003617 28.6623  21.90038183289119 38.04289583528509 30.29660308801571  24.05725713187422 38.39543293354351 29.32628087964205  14.585887 29.775423 33.679451  15.94451 29.840433 34.566231  18.17154129245429 30.64076155160121 34.61300225756287  18.14426874715664 31.45611773892064 35.68386545439131  28.729761 29.323082 33.909611  27.88244873366001 29.11811139520817 35.72691114047747  28.58520954880738 27.85742040548453 35.20838944027197  29.567104 28.897152 34.523464  31.76410809453323 38.56906513870786 38.12093174789734  32.136238 39.35947 37.145718  33.030891 40.003617 38.319  33.107475 39.040703 37.675011  20.48238414888557 30.56804953957433 30.9290508834887  28.985472 33.827751 38.707844  28.362041 32.422306 38.376961  27.513735 33.455685 37.813267  29.77832297226943 32.9334787299323 36.96866122175197  23.53433107792512 35.79367122166813 29.08294091201191  22.0900684089651 36.00157762987784 30.97149528116517  22.65233982479761 33.56263977283916 32.32714903562983  21.866146 33.300751 34.487999  13.578185 29.00868 31.270559  26.172533 33.384377 36.929749  27.27449073903761 34.23903404246697 35.22968805045956  27.9704671599629 32.42245910789442 35.91230785717619  18.63036 34.813778 33.050571  17.909899 34.59174 33.926128  26.512039 39.380482 36.203896  27.83736 38.987148 34.72369  26.5692909213114 37.98763296878597 35.41067299981526  18.852791 33.248768 26.882376  19.019417 33.308071 28.475574  24.95035764529542 36.33958476733506 34.14630231062543  17.4604 39.003975 26.085838  17.408428 38.307652 27.069181  18.204283 37.887577 25.993515  19.20547185132736 38.65095346876433 26.35173656588854  19.045107 36.120033 25.181641  18.490299 35.664295 25.738297  19.102058 35.26918 24.54682  19.52845731526928 34.85808464434592 26.18199482779074  31.379221 28.427151 37.509537  31.22742657267186 29.12824155450804 38.96479645777702  30.895271 32.12965 39.990357  31.927799 30.947754 39.990357  30.396185 30.664118 39.990357  14.200308 28.970396 33.273033  18.6423817672713 34.59073905700247 31.6682697777637  30.9529 31.252428 36.02076  29.767118 31.537418 35.112534  30.721682 32.497093 35.643963  26.371197 31.215855 24.384888  27.007925 32.125744 24.766251  26.21567156635453 32.33880236727434 23.91231582178543  25.65915757596181 31.79324479108551 25.65060511424134  19.538198 38.674011 32.100407  20.214413 39.350922 31.718266  20.44237491218105 38.41048696421636 31.36349305326522  27.090496 26.468552 38.545132  27.421347 27.280548 39.149448  28.87670327390717 27.18387230028146 38.76431006135918  28.00738160254534 27.73414058521135 37.35775765745969  16.932817 40.003617 28.746489  15.844983 38.926727 28.824978  17.104456 38.050293 28.470896  26.090036 29.379906 33.14883  26.164925 30.450502 33.155041  27.691196 29.712107 33.310875  19.75335611851076 35.30399682344279 30.9227554675297  19.292135 37.144581 32.339333  19.285824 35.46093 32.440346  21.98094 38.207523 24.144131  16.88060217177205 31.12356622796539 31.407395442861  23.030811 40.003617 24.856173  22.139946 40.003617 26.172352  21.8726625 39.667206 24.3814895  24.165245 34.185852 31.982452  24.185858 34.693775 30.672924  22.421106 40.003617 32.883629  23.626181 40.003617 32.235046  23.96077068706376 39.11002502768639 33.73561839913252  24.07735961373816 38.47843065572118 32.27642251648118  22.617247 32.161865 26.579901  23.819597 32.503765 25.338541  22.588043 33.956898 25.600033  24.5996044175477 34.38990312632533 26.37826221653075  19.8563344411986 31.42679544492419 32.9149280238864  25.201647 35.467476 29.32284  25.520557 37.231468 29.747864  25.02800156392701 36.08699728
[...]
<PointData  Vectors="u"> 
<DataArray  type="Float64"  Name="u"  NumberOfComponents="3" format="ascii">4.9354962110656523e+01 1.3695881077550098e+01 -1.0521014503179345e+01  3.6314509497213578e+01 2.1644581748659331e+01 -1.8519451590257535e+01  3.8676013350858433e+01 9.3574522461153684e+00 -4.8356929573800222e-01  2.5899365186370741e+01 1.6568128296538788e+01 -2.4706540485819910e+00  4.7635191465690561e+01 1.9525781125302817e+01 -2.8892262860439470e+00  5.0844073533817379e+01 1.5558645901015984e+01 -1.1543996858292140e+01  5.6974850830041667e+01 2.1823786163769224e+01 -3.2259044541775830e+00  1.2407734040024665e+02 -1.2253916459539016e+02 -6.6844519110729905e+01  8.4065092257393005e+01 -6.0440570577415130e+01 -4.4056688711940524e+01  1.0363261033162364e+02 -6.8218280781582948e+01 -5.0110561870712644e+01  1.1152651673602658e+02 -8.2323492594130585e+01 -1.5747596523225246e+01  1.1430017551041070e+02 -1.0110858073059785e+02 4.1816346131728295e+01  3.7647966819917308e+01 -3.3224955661707583e+01 6.6471401671721352e+01  8.1035223439497543e+01 -5.1879061696194995e+01 1.4308760290580778e+01  7.3081037386218384e+01 -4.4095971313830361e+01 2.5518098739206625e+01  4.3225522859292440e+01 2.3258163194984607e+00 2.9131518568782702e+00  4.4493866387148891e+01 5.1153224861618405e+00 4.7912950525776509e+01  5.9731295567570626e+01 1.2645750678776257e+00 1.8206812633077949e+01  2.9842474451447963e+01 1.8393632168234004e+00 1.1382419390004356e+01  2.4416511207387554e+01 -2.2619689821069208e+01 8.1929001125367989e+01  -1.7628228996780781e+00 -9.6262736056574756e+00 3.7470457027644159e+01  3.0170102774338776e+01 -1.3904781050745889e+00 4.9117088455638402e+01  1.9469097921554052e+01 3.4360072368889016e-01 2.3012467953210102e+01  4.1214202335204924e+01 -8.4867357629088147e+00 -6.0551805098191544e+01  5.6684547992092895e+00 -6.7153703900272239e+00 -3.3395027592749592e+01  3.8092286743269476e+01 5.9063930566247320e-03 -3.3908847703533525e+01  1.5496253740039050e+01 -8.5363247368695860e-01 -4.1080396895688921e+01  4.5545603634137201e+01 -3.9124847799666013e-01 -1.0220599799797377e+01  5.1584113445229235e+01 2.5408606795321438e+00 -2.2148094792350047e+01  5.4800306050637012e+01 4.4775662755144037e+00 -1.8770532153607842e+01  4.9783454315376069e+01 -1.3589146710488842e+00 -1.8884821976821112e+01  7.1387074592834068e+01 -9.7104054486730345e+00 4.4083242701783362e+01  8.3388549290906639e+01 -2.1327555266870930e+00 5.2427382710207887e+01  7.8061604164022626e+01 -1.4945138739318328e-01 4.1143967677353622e+01  6.7481397466760569e+01 -7.0936981248465010e+00 5.5265102054660673e+01  2.5484840261281693e+01 -1.1013653208181806e+01 1.1846199585470673e+01  6.8466287679418215e+01 -1.1262721202091118e+01 2.5881841717499643e-01  6.2711860076935857e+01 -5.2878149020503651e+00 -7.7505575047009911e-01  5.9512320917676760e+01 -7.1956823500968650e+00 2.9875861444658607e+01  5.6100671107898272e+01 8.6513439651346413e+00 -1.3004717573040502e+01  3.2124862210072301e+01 -1.7925999989885513e-01 1.2507336728039537e+01  4.5082520843030132e+01 1.3352270839503849e+01 -5.3979705335031962e+00  3.5842445840891529e+01 7.4571383053413776e+00 -1.4765506967583022e+01  9.0796959725558821e+01 -6.1165682157229988e+01 -1.1912988027919885e+01  5.8239081396566029e+01 -2.8012596909295837e+01 3.2564385622856111e+00  7.2716162113942374e+01 -5.4384640424352739e+01 1.5869426458287947e+01  6.3331496990165228e+01 -4.1669859056574808e+01 -1.5907651554759187e+01  8.5895951782530787e+01 7.3498988782677825e+00 -1.9867119256174298e+01  1.2659437646847424e+02 1.2645711574241895e+01 4.8143760292552578e+01  1.1561954391058590e+02 1.8380219431651646e+01 2.9283521665841796e+01  9.1133265850524467e+01 7.9290971899187355e+00 2.5266938713720858e+01  7.8024857775468249e+01 4.1339252202292948e-01 5.6734479942724050e+01  7.5202342028260674e+01 -5.0770945586155882e+00 5.1535120154118523e+01  6.0614805890917197e+01 2.4511059336154553e+00 4.3460611774084775e+01  7.5047136001160439e+01 -1.2692366380899160e+00 5.5470658759849080e+01  3.5805243573954371e+01 2.6035345034763786e+00 -1.2075877403516715e+01  4.4937562465382271e+01 2.9272515458801212e+00 -2.1611277440996947e+01  4.3506302181578064e+01 8.5813013770698028e+00 -1.1773501067737838e+01  5.6693328741931502e+01 2.2752006912625429e+01 4.6529823148550250e+01  5.3730309569134327e+01 2.8740940728298224e+01 6.3283396464884170e+01  5.3629023807329425e+01 1.0985297954307612e+01 3.9779655491821345e+01  7.6232229735428163e+01 1.0953396708105517e+01 5.0277349511252268e+01  4.7599333462568687e+01 4.0988661080860300e+00 1.5785521119513275e+00  6.6352012523656896e+01 3.4375985667141826e+01 7.8820937402577869e+01  1.2111099297011968e+02 -6.2843053498478696e+00 3.8045540009367386e+01  2.3605107104294567e+02 4.5572564109103340e+01 5.9400225293655723e+01  8.6676620720152243e+01 2.1254247849446578e+01 8.2871886205922166e+01  8.1838613632351567e+01 1.0291182164737465e+00 6.9661595116476363e+01  7.6259548489453337e+01 9.4460638287558378e+00 5.3615335925847418e+01  8.7561084248880732e+01 2.9538140214066679e+00 6.9462252405488840e+01  6.8725912020701912e+01 -5.7870808968612621e+00 6.9422564607627848e+01  3.2091989751760813e+01 4.3953751281113336e+00 7.3083680898767852e+01  7.3921353831498635e+01 -6.6504899149084107e+00 6.7991639871746642e+01  4.2481727704945207e+01 1.3622890760343342e+01 7.7758274722234106e+01  5.5108080410025735e+01 3.8913445742832597e+00 4.7739525211009905e+01  5.8186422454662463e+01 -5.0263640517976718e+01 -1.2052822584226708e+00  6.1004532242500510e+01 -5.0037001853605162e+01 3.5513405983751092e+01  4.5192336368705469e+01 -2.3786687465505242e+01 1.7685899725536899e+01  7.9896626968405357e+01 -2.3211412498045714e+01 -4.8207415496436177e+01  4.9314239252308717e+01 -2.0773955130076224e+01 -2.6230524828896947e+01  7.1868888720984074e+01 -3.0170873531531292e+01 -6.9794899507422736e-01  4.8871773250832575e+01 -2.7185259288573747e+01 -2.1122307187266543e+01  9.3549336681759954e+01 7.1237978892341474e+01 3.3576867919607999e+01  6.6733970653214286e+01 3.3695874191186455e+01 1.4543241918525140e+01  6.8860954282546075e+01 1.0612678858921447e+02 6.2407534053404667e+01  6.6233521127134523e+01 5.3797624357906514e+01 -1.2417505140997382e+00  6.5060533627998907e+01 -1.4723901331777155e+01 -1.4141080873203641e+01  1.0570637127298988e+02 -3.3287350674608916e+01 -6.2280551009595158e+01  8.0045347199775733e+01 -3.4520632797623399e+01 -4.6646223700191662e+01  9.4733291107199847e+01 -4.6771817380471738e+01 -1.4576002462417026e+01  1.3738152040242358e+02 -1.4603363550647201e+01 -3.6194403796943973e+01  1.1877330282645215e+02 -1.3277406067973033e+01 -5.7048212111636069e+01  1.1424176275274870e+02 -5.1250574835867930e+01 -4.4655427131487556e+01  1.1525278766449340e+02 -2.6781789558798799e+01 -5.5390112499044101e+01  4.7484436813590015e+01 8.5597439965106481e-01 5.1323605814847753e+01  5.6365456305341958e+01 -8.8781089207111297e+00 5.6117269685379640e+01  3.8436055905745519e+01 -1.2529065470663285e+00 5.6490623650511132e+01  5.5114307628051627e+01 -6.8070620720025521e-01 5.3732944420479214e+01  8.6863951131946621e+01 8.8819197749574315e+00 5.6161613773731887e+01  6.7079403444544639e+01 -3.0894843540500830e-02 2.8112855376919338e+01  9.0741236243208434e+01 7.3210123896087005e+00 2.3903744008825292e+01  6.8902047888297005e+01 1.6498161513603783e+01 5.4635381727912218e+01  7.1665616427865828e+01 5.9256997160721712e+00 -2.8668052523941391e+01  5.0911823214206777e+01 -2.1501617060249254e+00 -4.5867004758101444e+01  5.5127643166339119e+01 -2.3407556744611964e+00 -2.9480190086772158e+01  7.5960276532738732e+01 -1.1531725697164874e+00 5.5011964612099277e+01  7.9211206002631556e+01 3.7802082922957134e+00 6.0960139641356285e+01  7.3107561746658661e+01 -5.3182044099847756e+00 5.2373654271519101e+01  8.7337993390684105e+01 -1.2315404086213237e+00 4.4194137600815651e+01  7.1267784725692067e+01 7.7185261455981520e+00 2.9571184695450128e+01  7.5094038633644303e+01 -2.2630135474502007e+00 4.0600430926625037e+01  8.2332871247676877e+01 6.6409751296870523e+00 4.2944696441859712e+01  1.1188103524933369e+02 2.9607858149592703e+00 6.1024890739225945e+00  6.7456425095683997e+01 -6.9919407872439985e+00 -6.6936422764615259e+01  3.2081122051040694e+01 -1.6875240287353235e+00 -5.1974492269550645e+01  4.1783507016314736e+01 -1.6265592544365608e+00 -7.0980717226892935e+01  6.2874907943092175e+01 2.3097455230640316e+00 6.5935962764795988e+01  1.3867164182082664e+02 2.0538350805337160e+01 6.0090919471867785e+01  7.6395181324489144e+01 2.7031916643766793e+00 4.8722616388439022e+01  4.1579091245186980e+01 -1.5819505438794552e+01 -6.2210322802624482e+01  5.6302259394131511e+01 -5.6319810688994911e+00 -1.9913549574837166e+01  7.5214452345606546e+01 -1.0489979615503731e+01 -9.7536850781231106e+00  6.1054498359857000e+01 7.7863705205296236e+00 6.9222636409520732e+01  7.3626764290386774e+01 1.1279777425414750e+01 3.9815230533792068e+01  7.1556520455280619e+01 7.1369933741876093e+00 4.9730851127299943e+01  8.2506741426295164e+01 5.4212506671300975e+00 5.5361994985969652e+01  6.5399504750958315e+01 -6.5135706931738557e+00 1.6183116252440314e+01  6.0873623999333248e+01 -5.0679911902418988e+00 4.8543622345560372e+01  4.7612417723672401e+01 -1.2332741564958132e+01 4.2934399968365867e+01  7.8060223739030207e+01 -9.0619190974162045e-01 3.9729220594318292e+01  6.6202549769886957e+01 -2.8186989831314438e+01 6.4176039546469340e+01  5.7230807422527931e+01 -2.9763381091004376e+01 6.7405970504160422e+01  6.9308376769937624e+01 -1.0954411110950572e+01 4.9167928446321426e+01  -1.3903649527840529e+00 5.5021956208627758e+00 1.3287353778838209e+01  2.0599949703613301e+01 1.5146608977821430e+01 1.8247735200861513e+01  -2.9156093535981995e+00 -5.8278616211200545e+00 1.5439442646643201e+01  1.2223549254385512e+01 1.6782320568059763e+01 1.1027687172950973e+00  1.1925613099064594e+02 -7.9016541312948306e+01 4.2677222556050829e+01  1.4489248949098121e+02 -1.1532899688708191e+02 2.6519137810672824e+01  1.7102119835665869e+02 -1.0692891062113524e+02 2.2465238557525961e+01  1.2244818940202633e+02 -7.8453674423509945e+00 -7.4880881112411529e+01  1.0614733930015625e+02 2.5617154761007028e+00 -6.4372023916016289e+01  1.0502242406385379e+02 -1.9960267030788574e+00 -2.8932350499758723e+01  1.1136406653670268e+02 -6.6493853831343692e+00 -6.3088910122941954e+01  4.3367946779567148e+01 1.4574873889461781e-01 -2.0790581392929003e+01  4.3029119720446232e+01 -5.2854749315526950e-01 -7.9852418955806641e+00  6.7363963967132861e+01 1.0694632530593027e+00 6.5763444202880716e+00  3.0044770539191642e+01 2.5773774088071488e+00 3.0594123474613664e+00  1.0387485067404022e+02 -7.6548523159627720e+01 2.5772458748098543e+01  5.1120232210442204e+01 -4.7807963271164134e+01 4.8394173554554271e+01  5.0352918559123573e+01 -3.1488178903713798e+01 2.8115771710493691e+00  4.1127663713365486e+01 -2.8178578209339282e+01 -9.9206228531798217e+00  6.9448980206248848e+01 1.9906387582714484e+00 5.6806065407857758e+01  7.3744282245257978e+01 -1.7069088600546642e+00 5.8168452907143674e+01  8.2775225632639106e+01 -1.0247696053357100e+01 6.0061819113983987e+01  5.6404220082975741e+01 -4.8448153389025936e+00 6.0466472174554880e+01  1.3658282712329694e+02 2.3460173280589682e+01 5.2094383574344938e+01  1.3192238187423152e+02 8.2149266977004558e+00 9.9232312846498189e+01  2.2058953805045741e+02 -5.8619089490675997e+01 5.0307562224148668e+01  3.1624148052970986e+02 -3.4073703284724779e+01 1.2092140807403555e+02  5.5675603801432288e+01 -2.1939031955991055e+00 6.2394455058795995e+00  7.0703223071226518e+01 -7.7214257310858985e+00 4.6261863834703021e+01  8.3235248426744661e+01 -6.3331129403397339e+00 4.5368177308753623e+01  7.4115114103639840e+01 -1.9539208563112027e+00 4.7241831186416469e+01  8.8861694211587860e+01 -1.4509249864176640e+01 4.7986545708908999e+01  3.1844192080786183e+01 4.3440000091634463e+00 -6.3953271404343779e+00  6.5665639992399520e+01 5.5161983232604550e-01 2.0149963828298780e+01  6.5567270906997905e+01 7.9001938423778979e+00 3.9182837742937274e+01  9.8292393374737799e+01 3.6379765773450728e+01 4.3623966785171675e+01  8.1522330336126089e+01 -6.5783972632675642e+01 -2.5221660235401202e+01  8.1625121928572241e+01 -2.6870433327511964e+00 5.2519714741251313e+01  7.1319731488730213e+01 -4.9192992605211652e+00 5.0034889504250245e+01  7.7771828720988054e+01 -4.9808189070713897e+00 5.2677894344722148e+01  1.0572416490117037e+02 -7.0042558674711174e+01 -5.9811280529538735e+01  1.0337189068943455e+02 -1.0568780746230387e+02 -2.5635584554313084e+01  9.9130449757294954e+01 -6.8714498196828151e+00 7.2894678682976320e+01  8.3898174093591635e+01 -1.1207846757646571e+01 8.6201980432939678e+01  7.5999314675311169e+01 -8.4752392702276147e+00 6.0525983890578999e+01  1.5994311925133617e+01 5.8261257618206830e-01 3.0075292384238036e+01  3.6721440327697130e-01 6.4845035499218477e+00 -3.2947324399426705e+01  6.7831174446103049e+01 -6.6113431689111133e+00 4.4268479902748624e+01  2.2519779167447155e+01 -2.4362371074963468e-01 -3.0720400584712372e+01  2.8552043409124980e+01 -1.0429988880947919e+01 -7.3049355018248789e+01  2.8027476316883462e+01 -1.5232437290242739e+01 -2.9703936112687604e+01  3.9389782035928775e+01 -3.9004925780981914e+00 -3.2104450689288697e+01  3.1811135229026576e+01 3.9254456590490015e+01 1.8251623773958109e+01  2.0375415206464144e+01 2.9534133596884345e+01 3.2236939980550666e+01  4.6033907672552623e+01 3.6942321945636891e+01 4.1725874890505011e+01  3.4120556394061985e+01 1.7949927268539554e+01 1.7467679017318513e+01  4.1988989701933725e+01 6.6979382733009203e+01 7.3572243675038635e+01  1.2883394473732722e+02 3.3514320636077514e+01 2.1730807300187578e+01  7.0826960604766157e+01 -1.5872524754577746e+01 2.0692455572562999e+01  1.3206127060440795e+02 -1.6812025835814389e+01 -2.7403628360263741e+00  8.6280166939015942e+01 9.7442499419803319e+00 2.1182172513610670e+01  7.7748173303636733e+01 -7.8595515976331541e+01 1.9578999733519140e+01  1.0408470884613862e+02 -3.6035636440740824e+01 -4.0765928102341462e+01  1.3360584909131629e+02 2.1145693663257807e+00 7.2577727480247873e+01  8.5969507201978018e+01 1.8432564285221249e+00 6.9697282149852654e+01  1.0961016825852373e+02 -1.9055233743514254e+01 6.1841174788995609e+01  6.5833683358196993e+01 3.1464068095137907e+01 -1.5603482872232104e+02  4.6618355815974205e+01 1.0059150472496002e+01 -1.6241531893439776e+02  8.0471829494963373e+01 -5.4841278595611902e+00 -9.4448492174011321e+01  2.3280780487358530e+01 3.0424806173901569e+01 -7.3858661671544183e+01  1.6096676343916209e+02 -9.2076820090089644e+00 -7.3848513464887105e+01  1.6767804167737322e+02 2.9954037645561403e+01 2.2864124024433412e+01  1.3004140972346141e+02 8.3038891750678960e+00 2.9364163304452648e+00  2.4105846045359939e+01 9.9158445970759388e+00 4.8349889661849204e+01  2.3406255088833923e+01 3.8173495446505115e+00 3.7310607460990269e+01  5.3061998656176179e+01 2.8287472421690878e+00 1.8014998366747122e+01  6.0257594758551953e+01 -2.5006222517970809e+00 4.9238829433456338e+01  8.6668431502888780e+01 8.1295740840463679e+00 -8.9851932938283596e+01  1.9008617316179269e+02 1.2095096257627942e+01 -8.9855063938991776e+01  1.0600807294344780e+02 -1.0949560935893437e+01 -1.0916882922093333e+02  9.8050081492252417e+01 5.9623350731398638e+01 4.4397621775473439e+01  1.0387815844707264e+02 4.8127404267819394e+00 2.2722425581712521e+01  5.9844805651329096e+01 1.8093259997100269e+01 2.7991999649653962e+01  9.7400423132214954e+01 -1.7227228358855879e+01 -2.7077535969900108e+01  1.3834806725548594e+02 -2.2312911732775582e+01 -7.9376626380237923e+01  1.3127511557663337e+02 -4.2282184083538105e+01 -6.3871789729325030e+01  7.4932652606521643e+01 -2.9133651426980753e+00 -3.1875200335030264e+01  7.3490164011793681e+01 -3.6485816466907316e+01 -2.1082902817318036e+01  5.6748273390368524e+01 -9.2646345596217419e+00 -3.3724172839835582e+01  4.9439715878422540e+01 7.0260360016232704e-01 -2.7170866630663490e+01  6.2342790855509335e+01 -9.4748733005035977e+00 -2.0237924642960881e+01  4.9803231963128944e+01 8.9921601588458309e+00 8.7211554344187732e+01  4.4558172889108487e+00 6.1643918586609274e+00 2.0526551455496524e+01  5.7754368853381628e+01 8.2964086110205915e-01 5.9322800339452215e+01  4.9613315055378933e+01 2.9008358286007369e-01 4.7281761424836930e+01  4.7960262412623216e+01 -2.3991295876838814e+00 4.9148763007525574e+01  4.8439326979910234e+01 3.6738592551384675e-01 4.9812237825989428e+01  4.9647209407391607e+01 1.4317620277260122e+01 -3.2125933773944567e+01  4.4262633064567147e+01 9.2247644993975655e+00 -7.2987705523877949e+01  6.4017879880925690e+01 -1.8610805094780820e+00 -4.5553626660778633e+01  2.9405250337040794e+01 1.2175764605959014e+00 -4.4214806780152195e+01  7.4268377559078829e+01 -1.4314253201978838e+01 1.6635461215835190e+00  1.5095224755200242e+01 6.1275674559457221e+00 -1.8640343832086661e+01  6.5970958752288800e+00 1.2381192986620711e+01 4.5855283128176788e-01  2.0540397066130595e+01 1.0337212889730643e+00 -2.6245726619029615e+01  6.0800101436276613e+01 -9.4866657464050679e+00 3.5742976033261371e+01  4.5525669313587514e+01 -6.5104828144448588e+00 3.5643925312675947e+01  1.2005117832204579e+01 2.5287379155687905e+01 -1.9805583620990124e+01  8.6347350787618907e+01 5.5582109203798984e+00 1.2635237407024425e+01  1.1668149844838153e+02 -8.4108643334876788e+01 -2.0603534586064221e+01  1.5556523124627648e+02 -2.9527081640068310e+01 1.7483543046200840e+01  7.4320716680191182e+01 -1.6765233436517555e+01 3.2877105262549229e+01  3.1622193791955034e+01 3.5530016948426592e+01 5.2448472197792746e+01  4.8054531956360911e+01 2.7219672812557299e+01 4.5238084002904365e+01  2.7703425721212668e+01 3.5896871795073118e+01 4.5217077378133091e+01  6.3378752871042003e+01 -4.8855485929358631e+00 -1.6968135762543152e+01  5.9572417193651461e+01 -2.6803269346385403e+00 -1.5882902733849736e+01  6.4881885333151189e+01 3.3445008196821284e+00 4.5223089801111783e+01  5.1434417477775767e+01 -3.9518638126176103e-01 3.8706508184745310e+01  6.0226694460154803e+01 2.4385069673313076e+01 1.3410409791020976e+01  1.1771269633463491e+02 2.1299005196899518e+01 3.8639022888522582e+01  1.8766481732235452e+01 2.5705016135883774e+01 4.8910982169732932e+01  3.0927836580711055e+01 3.8703795642742882e+01 5.5119928719557549e+01  2.8723701674814954e+01 3.3814492128808567e+01 3.7829556456138420e+01  2.1171481808311114e+01 1.0305264862633740e+01 -4.3083854939247182e+01  1.6737499943714391e+00 1.1833828312727082e+00 -7.3828131403932744e+01  7.0157280763849050e-01 -6.0025850888208314e+00 -3.3600927189073303e+01  9.4777805773912949e+00 7.1430185349805528e+00 -3.2195741161516665e+01  2.3251131725535252e+01 2.2245656011381616e+01 3.7787713057924726e+01  3.6132606863142399e+01 3.4658324967785020e+01 5.6164550297280392e+01  4.6534528296114495e+01 2.2914055341995489e+01 7.0776716589307128e+01  2.8106939386666212e+01 6.5760721653200627e-01 -1.9478253226652058e+01  3.2480004421667950e+01 8.5441791280371163e+01 1.6700729438708720e+01  3.8934226976439987e+01 4.0850291760038019e+01 5.9088434006079495e+01  7.2171311956065850e+01 -1.9751264216121525e+00 2.5494828514322670e+01  9.8168439752627108e+01 5.0780011762360031e+00 5.2698743275044464e+01  3.6014499345099445e+01 -7.2811336314809729e+00 -3.2657242016080446e+01  4.3048495494720434e+01 -2.5555548312869693e+01 -4.1569542945031017e+01  3.5005771321841806e+01 -1.1531884986358046e+01 6.4590156225836175e+00  7.3244629773639474e+01 3.9110977812507142e+00 3.9997871325170131e+01  -3.3842187578212086e+00 -1.8595577482411679e-01 4.0065636012047463e+01  -1.1169551020403583e+01 -5.9544226442922072e+00 -2.1153565817095455e+01  -1.0330992170482807e+01 1.0000210779512035e+01 -7.9617233806817609e+01  -5.8379822385021445e+00 -1.8306871940939846e+00 -1.5518137342331880e+01  6.6502989366411484e+01 -5.8527542676290167e+00 6.2543871653877794e+01  6.2042783375704317e+01 -6.1108951333568751e+00 8.1088081381106505e+01  8.7229223553292485e+01 4.5753696906340222e+00 5.2304970031746826e+01  9.3545762465936704e+01 -8.36350847734098