<?xml version="1.0"?>
<VTKFile type="UnstructuredGrid"  version="0.1"  >
<UnstructuredGrid>
<Piece  NumberOfPoints="621" NumberOfCells="2178">
<Points>
<DataArray  type="Float64"  NumberOfComponents="3"  format="ascii">27.27349734869854 23.50033885540123 35.66452755765501  27.63057694311821 24.49719673356375 37.1434365587057  26.310349 24.047176 37.794735  27.0543614174192 22.98478599504704 37.25089597550202  25.50474926658383 22.40531879374142 36.20192395830863  26.24121185103339 23.42717977536159 34.02394262800055  26.83130684443953 21.83978544084195 35.97183649719994  26.01870860464278 21.01607144239694 34.2206792758689  25.478008 20.15727 38.265163  26.76165 20.279181 39.277157  25.927156 18.888727 39.164341  27.30516756196691 19.51752031014398 38.00478663026325  21.401131 20.9091 30.133209  21.824112 22.1346 30.577898  21.801973 20.832096 31.250626  23.52343056057761 20.84486543641665 30.10634614645468  24.4331032782854 19.10334070084133 32.84325518244611  26.11516882444566 21.34532548574294 32.51288702110441  25.83888365107529 19.02745405254516 31.99768249309716  27.617762 21.916403 28.782112  27.282631 23.306063 28.261587  27.671703 22.244009 27.64992  26.48124165100097 22.24405384901802 29.04610192786879  21.426325 26.159191 28.186615  20.921843 27.15448 27.858118  20.629951 26.226082 28.911295  21.43650944182444 27.43567116581838 28.67323650471103  20.856035 17.42239 32.275009  22.17009456140849 18.80845296123536 33.58611903216813  21.35108141854242 17.08093916846398 34.19362378749199  23.12940742595719 17.19336480911176 33.02110421049332  28.142374 21.712305 32.750404  27.46694112722539 19.42035891135189 33.08406016016179  27.19951742215371 20.01639510277997 31.40231246690643  24.83487035174265 17.56021583377044 34.7217280553391  23.7099660556728 19.97927737385927 35.20769262576109  23.39544214042581 17.85948277720794 35.93919434523834  25.3834063110964 19.76313623795006 36.46011334611342  16.339495 24.369007 37.184399  17.665119 23.152575 36.295567  16.959396 24.760969 35.786816  17.1538573182322 24.85139712126142 38.1247994343777  24.943087 16.428158 30.589571  23.33969254484892 17.59702249175462 29.94758088808981  24.07158336695067 17.33347211327211 31.49664030682112  24.43701060713767 18.0499959830163 29.63914912875719  20.332865 25.906664 28.139894  21.292984 25.548697 27.792768  20.60103 24.676243 28.38765  20.32172089522129 24.77003999890606 27.12356244178297  26.32226275152001 21.14607929652852 37.08435692330384  25.844419 22.170111 37.629883  22.54971845711432 25.25507065180886 27.63640434993533  21.67307997421269 25.0510584077233 26.60038945383993  22.42389871597792 25.86312947872469 26.92658931090241  23.27122093873649 24.94715475014414 26.45138435098715  24.815601 15.018764 30.11487  25.222019 15.646739 28.94343  23.57370419042402 14.32847036048409 28.37543475546417  22.97997902295267 15.68175976368546 29.63832147830586  21.18500028034713 23.18946487572833 26.51684424055109  20.01669115159952 23.70718108317766 27.84087994857252  20.55580445703207 22.05979806055716 28.01778208019283  21.34649040569433 23.5948805277475 28.4790753969981  26.1031810289768 18.76243982064992 34.3963357761382  22.546513 28.543169 34.771179  23.388052 27.134073 34.710255  22.186497 27.19418 35.331532  21.24869549961091 27.41366631279011 34.37559927597795  20.82372474614904 23.8997977273566 24.93837487058486  23.03240651743376 16.32770428090043 34.86373560689457  23.697451 15.208926 33.915539  24.57257204883424 16.10968674445513 33.88075067199931  24.65361393046063 15.83398197335988 35.83647825868346  21.332857 15.645403 27.832462  20.54472 15.038239 28.98192  21.216002 14.270632 27.410847  21.532972 13.781041 29.712822  23.75907725046784 24.09865467486338 28.34594192220942  25.65965244042168 23.00971202754564 27.65928639498247  25.54514359346204 23.56221287154397 29.95247579525726  24.65728848274576 21.89686420239166 29.09203810893623  21.373665 24.103277 32.36105  20.561634 24.380653 33.437489  21.162098 22.935331 33.293385  21.9287195752318 25.26733986823478 33.0354826143522  24.10898231793425 17.77653340008226 28.3291491051867  22.57332361094477 18.21810705336301 27.99533187569411  23.52124170795921 16.51857156678843 28.05408350928805  24.50757450064855 23.5233288849203 26.15173235454347  22.52561549823621 24.29916070631518 25.70058041126106  24.221521 24.656765 24.644863  22.77243409378585 22.99814612960967 24.63702781551172  27.081345 19.63493 27.814854  26.070816 18.519278 27.674543  25.1010362656241 19.722394717352 28.70872025854101  25.38361834744678 19.72109649987036 27.26344184730714  20.26271672251224 27.58096208097416 31.08849551774397  19.61559785969608 29.34163555917321 32.11787319269523  20.02494203475958 28.74611805686664 30.08844976752169  18.73056826337223 27.9746050996372 31.72258954979809  19.960484 19.001759 26.569563  21.033482 19.55559 26.23876  19.28295716406049 20.90219614773253 27.11605472381053  20.4170856484917 20.16711147367576 28.28780097987457  21.981249 16.406065 32.135944  22.72516223868609 22.53300545465709 27.11714410509956  21.46307067556443 20.96392815392478 26.96033044357883  21.79731428300554 21.0833722848286 28.8490581778784  23.68058876624728 21.22582453791609 32.46563084631103  21.392658 21.163748 32.71328  22.26635617477755 21.77380036401679 34.28595789092062  23.55271336589006 22.62840061274047 30.89799669320838  20.467054 29.577154 36.370132  21.350832 28.440006 35.420532  19.78650624770456 27.519915442015 35.73332793233313  20.02156547520892 29.43722484500124 34.41249907380013  24.407585248771 22.4242121468199 34.35180073505563  23.16735758180104 23.35139009831832 36.26015119449998  25.00207989915916 24.22898439546671 35.32613601046921  22.79070172742587 23.72294892938057 29.76407983406021  21.335867 23.123896 29.959166  22.15225627223826 24.70444956370955 28.87343352976796  19.32403 25.899517 29.587393  19.38468125759868 25.46480735005838 27.76927694769388  18.488432 24.374235 28.976135  18.22794106827428 25.9635999260361 27.90002291284189  19.98092530555079 27.80180019601704 32.76897433607329  21.24431196027064 28.70615350532883 33.62486553442875  19.48592078119348 27.31801282337899 33.92954087351126  18.517498 26.697197 33.029488  17.766361 26.499708 32.147873  17.42531 26.126902 33.53878  17.86607405329318 27.59432116172689 32.69742544713813  20.141602 28.815201 38.100899  18.28613983456257 29.32103661127046 36.29329258015253  17.88398573801694 27.95158761985275 38.28765566739571  17.92793731970583 29.62563254115797 38.43521527661189  18.13765815756401 28.65078851265313 33.87879735080596  21.342699 24.607199 23.284008  22.868334 24.601282 23.771254  21.377769 22.56448 23.650848  22.903563 13.121776 35.65173  23.561548 14.2127 34.896442  22.202835 14.148332 35.406429  22.18577837697593 15.03346112271108 36.62021929876742  23.291092 16.579592 38.433357  24.175785 15.882723 39.202152  23.97990488288451 14.38252635370706 37.65315186144396  23.44517707117031 16.44017235609584 37.24675035679699  20.739187 16.295254 33.394512  19.814198 15.611908 34.782574  21.186386 15.472649 34.271637  27.474955 20.025904 29.008331  27.751125 20.835646 27.995598  26.25072717746327 21.06246881225636 28.06204369772088  26.60858444362128 20.66826679446244 29.46848809562379  22.974773 25.341503 37.309647  20.83409410215008 26.0035701139239 36.52116756397727  21.12179897929041 24.1911145952646 37.90463663500257  21.909458 26.590141 37.988522  17.764559 25.33983 34.484207  16.640757 26.277685 35.063747  17.9047908230012 27.22047936636124 34.44103565418928  19.525869 24.413391 39.990357  18.19589 25.392372 39.990357  18.62762213696692 23.05633592696339 38.40983844849432  22.385321 14.998472 34.610416  19.82615690917441 25.90307427251718 28.86693009089885  19.43204712908028 26.91955652444512 27.98807181920105  25.54022173450762 23.25763013396132 32.10824519032528  25.87476432621525 25.39784859224756 32.00221005671959  23.68841850520951 24.00263501913809 32.95210542343688  25.42382169675031 25.16153628450859 33.74810966967107  22.91731406386364 24.58589754287297 34.63614041607973  25.86944 14.166313 33.527924  25.555899 13.00423 34.467579  26.572247 12.767419 33.62851  27.17363707100178 13.80598071958275 34.73124428154895  19.245615 28.711708 39.321007  18.372662 21.760374 28.260271  19.382612 21.824833 28.781565  19.33007 20.699919 28.913082  27.596173028579 15.55986442476633 36.24736015321152  25.63331665228358 14.17031921870796 35.77781542031118  25.93700114836744 15.61768031917451 34.52488694060826  24.784616 14.234159 34.238041  23.21095135693949 26.26544010702896 28.20922994614751  26.33927 19.049553 29.332836  21.022982 26.103767 26.797546  16.243671 25.644218 36.484062  15.891932 25.67174 37.897614  17.0094451666323 26.4930307745134 38.47750057782917  24.520395 17.505892 38.887924  26.05909694942783 15.84523994166076 38.16203612288227  25.06846633439261 17.53695860495724 37.68758160544827  22.48509629043124 22.34459467328524 29.09321706134479  19.10091429543785 26.12806468239284 37.8596982940372  27.13493885198172 25.7944095443534 33.5432784670188  27.051798 23.868153 32.280846  27.90889 24.022921 33.531563  23.82726112186889 26.26280406384593 32.06543145823408  23.91058516754892 28.15982357166775 31.22135039257205  21.72460584233384 26.95676831520971 32.4586625450867  23.20367176873423 28.30067696008254 33.32586770105304  19.626554 26.682611 31.70713  19.722406 26.564558 30.633221  18.499592 26.669445 30.910046  18.94030564417285 27.56838157567781 30.23033146843421  21.78988701298925 28.74250943704968 31.11981159330103  21.09225822614094 29.38367725429315 28.87989376026524  21.05238243225138 27.27798292198912 30.12091439245357  19.967012 15.245313 36.69743  20.708113 14.348292 37.345169  20.737154 14.820697 35.552738  18.98568553222203 29.14780478342387 28.39948407213196  18.21275908419663 29.60358145848754 30.3939411426764  17.88233595485054 27.58807165301715 28.96696428115401  27.391872 17.831438 39.368927  25.807262 17.500578 39.990357  17.589773 21.989367 37.39043  19.001608205598
[...]
<PointData  Vectors="u"> 
<DataArray  type="Float64"  Name="u"  NumberOfComponents="3" format="ascii">9.5228691333993822e+01 7.8239748324259386e+00 4.6187945109564858e+01  8.1227279260514166e+01 1.4262950125116445e+01 4.4501373315669653e+01  7.4850530448773114e+01 2.8874730120304200e+01 7.3508101629186896e+01  8.2778487685512872e+01 1.9225639597168570e+01 4.4604844111909365e+01  9.7039376883764092e+01 -9.0873148676724136e-01 2.6616962628908958e+01  7.9872942934722971e+01 -1.9815112064205618e+00 6.0891966700452656e+01  9.1694623274829524e+01 6.8140495313589957e+00 3.2338248793876396e+01  7.7364944937400324e+01 -6.2473267311257850e+00 4.1798944109395400e+01  6.0567048361792750e+01 2.2506958528809498e+01 4.2146519141048671e+01  4.6527435333139138e+01 3.6557707419826059e+01 1.8663919713410376e+01  4.9290309666715110e+01 4.4829692576118617e+01 1.2211224871284749e+01  6.4927913518539526e+01 2.8686387698139605e+01 8.5753529884017574e+00  7.9572271340722963e+01 9.9494802670124294e+00 1.0001937824971859e+02  4.8854933291937655e+01 6.4762768402253741e+00 9.7550940014319977e+01  1.9602777698542823e+01 1.3345946170589428e+01 9.3680777706621924e+01  5.0798926313651762e+01 3.7685343960950074e-01 6.1539568941399182e+01  6.0256663554376900e+01 -5.2801569644711224e+00 5.1081940028596797e+01  6.7834842675405980e+01 -1.7561083243989408e+01 6.3276247582412914e+01  8.2330630194598726e+01 -1.4519721950898628e+01 6.5314366804908261e+01  -6.7896927543560510e+00 -1.9137517601204632e+01 4.7253852063615319e+01  -2.7661192336815860e-01 -5.1176472978629830e+00 3.4203027855771502e+01  5.6999020436682528e+00 -9.1180338677442947e+00 2.9516757463160296e+01  1.3536251157749289e+01 -1.1646032230226380e+01 5.6848835776612589e+01  1.6085052688658322e+01 2.2898023084076652e+01 2.7629382940645989e+01  1.0950643792669565e+02 3.2029074104959101e+01 3.4186554968902158e+01  8.5665234019168921e+01 -9.0136702421798134e+00 4.7979996166870073e+01  5.3139876675820290e+01 5.3952871038836117e+00 1.2393345182882161e+01  -2.1512725977191380e+01 -2.8589097860559413e+01 8.8246549278239726e+01  2.5387561226946016e+01 -2.5712858027314391e+00 4.1444238909889762e+01  1.1441481592820296e+01 -6.9384230469660046e+00 2.0956428096682075e+01  4.0004926673479027e+01 -6.0801053169062698e+00 5.3802684617415153e+01  9.8606631342599258e+01 -4.0443986935610837e+01 8.4249231614482866e+01  1.0609998215522795e+02 -1.9166374461545360e+01 3.8616627205490730e+01  9.7409065682922702e+01 -3.7007855535146739e+01 9.3204671654654334e+01  6.2750624001816441e+01 1.2647252830145332e+00 2.1210787110516950e+01  5.3030543404909437e+01 -6.3812949829889787e+00 2.2580829097782225e+01  4.5706725817187120e+01 2.4166906818824554e+00 1.4332977605294927e+01  7.0754175071572718e+01 4.7205228500479555e+00 2.3692745078070846e+01  8.6948423742331116e+00 -2.6382636459419903e+01 5.6752692061194203e+00  2.0128461993603583e+01 -2.6839540375383709e+01 -1.3220716197615321e+00  1.2672418980739907e+01 -3.3516058682697647e+01 8.7885874300378468e+00  1.0625592983191609e+01 -2.8827945230321966e+01 1.4824867723136883e+00  3.0794999608136298e+01 5.3900992658811816e+01 9.4531269332204545e+01  6.3581342663083490e+01 4.9747151063902537e+00 5.5238511042875366e+01  6.0041294129110639e+01 1.0837132059610763e+01 7.7045445387288353e+01  4.2733128830745414e+01 1.0136204158328935e+01 6.2258859065250007e+01  2.8029921334929426e+01 4.2674373658072035e+01 4.1226985147100237e+01  1.0923600545305733e+02 2.2135253096358113e+01 6.6853297444243523e+01  1.2474973417526732e+02 -1.1768959071437985e+01 3.8063256140384979e+01  6.7369101861165774e+01 1.0391823729536274e+01 3.9238251804279727e+01  8.1978367897463585e+01 1.2150956371497365e+01 3.3494201037030479e+01  1.1146316509364735e+02 1.3994298412521509e+01 6.2490353247757561e+01  4.9926298169064445e+01 2.5577002510452008e+01 4.7754853182915490e+01  7.4647623226059380e+01 2.0710625594403837e+01 4.7422096405865517e+01  6.3107248321775373e+01 4.5761648948263158e+01 4.9281772892862953e+01  5.0110211470169858e+01 2.1239126707579096e+01 4.1808145904771074e+01  -1.1048899133133128e+00 1.9860856250308597e+01 2.2839198213181100e+00  4.7808978507847320e+00 -5.0234203446500638e+00 -5.2669377880691712e+00  3.9703225883670903e+01 -1.7309938438959049e+00 -4.9118033356299691e+00  5.4392343925508499e+01 3.5365153698285443e+00 2.6322344479505905e+01  7.4982842041247821e+01 9.2618645187597188e+00 4.3055448428818025e+01  7.7269936521156339e+01 1.4995901725143538e+01 3.6159104381268129e+01  8.8621329732724433e+01 1.4617327920721287e+01 4.5020192097622726e+01  7.6578047725166257e+01 1.9581816252819923e+01 6.2768377803248832e+01  7.9534091603349466e+01 -2.0601377999332269e+00 2.5764590020000135e+01  8.5895951782530787e+01 7.3498988782677825e+00 -1.9867119256174298e+01  8.2215402845588841e+01 -1.2916980146266964e+01 -1.6523951401839597e+01  5.1654484200576370e+01 -3.1707591027828919e+01 -1.6130740725321647e+01  5.2452920533770801e+01 -2.2937587272878496e+01 -2.1334036584749909e+00  7.2447683473561710e+01 3.9734924122394935e+00 4.8571224196518585e+01  3.5568764702562071e+01 1.2591455027346551e-01 1.3439789828629289e+01  4.6769777446208735e+01 -2.0498138788090902e+01 8.2198555670888478e+00  6.2516544077541248e+01 -1.1142814190528020e+01 1.9119206170158044e+01  5.2685973377189541e+01 1.9489444307460030e+01 -2.5621579279197619e+00  9.7129684359375517e+01 -6.6116184007816599e+01 -3.7558736894853610e+01  2.0604851812486126e+02 -1.2560364419755108e+02 -2.2028422330841700e+01  4.9399394186558974e+00 -1.3186561805367340e+01 -2.2037096987405647e+01  1.4717760219151165e+01 -2.3018160297190931e+01 1.0131983804430332e+01  4.1301760320877044e+01 8.1929595111645970e+00 4.7593122438543354e+01  2.6240095228559809e+01 -1.5906560235929375e+00 4.2294001366562071e+01  2.5566267064862394e+01 -3.3819861912580107e+00 5.8256346967816150e+01  3.9969089214711623e+01 -3.4617986732103878e+00 5.4046567726088519e+01  1.0236773896528462e+01 -3.1982193151398310e+01 2.9907776668722111e+01  2.5908012585881842e+01 -3.8769604381007163e+01 4.1693546617827044e+00  7.8745773449166485e+00 -2.6428976935214994e+01 4.7083975819339772e+00  3.8768400169273924e+01 -2.2927160768160086e+01 2.1823890828290761e+01  4.1433625219676635e+01 -2.2124868462269207e+00 2.1684924384837647e+01  7.9682686320508807e+01 -8.6433419414479129e+00 1.8963913346542377e+01  4.7558549784859821e+01 -1.2414166145371031e+01 9.7505951985055817e-01  4.2273099345066917e+01 5.6525657704285877e+00 4.2125861662908797e+01  5.9928449656138646e+01 1.2645071692740807e+01 4.6940044849794447e+01  4.9230636286917822e+01 2.2797531310084885e+01 4.9154429718217791e+01  5.4842994480390686e+01 -9.1624942192345209e+00 4.7072971343426623e+01  7.4484185373924445e+00 1.1495327494252162e+01 4.3041124863522683e+01  3.5877670541843445e+00 9.7037508391896825e+00 1.4268588906299248e+01  3.8604962545223252e+01 -1.0854930144892803e-01 5.1801489759062271e+01  2.8406840740004935e+01 -9.8349365294609417e+00 2.8055679267753447e+01  5.4662508345125914e+01 -9.9503150485809506e+00 2.6480060940448201e+01  5.7122022126151080e+01 -1.2598882031623164e+01 1.0107502855693006e+01  5.1897496959972976e+01 3.4273319482918558e+00 1.8435692556950855e+01  5.2902599015528551e+01 -8.4165590723402062e+00 1.9987024747636926e+01  1.6620960556000642e+02 2.8781239872809579e+01 1.4973018138484072e+01  1.2043357768451393e+02 -1.2693230391863302e+01 -8.9510576792100416e+00  1.1467879449130052e+02 3.4073627943075032e+01 3.5798408102934957e+01  1.1366297363210552e+02 2.2420491969863772e+01 4.3736800549997014e+01  9.8900582904381806e-01 -1.4682353289020515e+01 1.0247598326365383e+02  6.0431076805598281e+01 1.9211995963345279e+00 4.2663659037308598e+01  8.7350340990979859e+01 -2.2259592433996640e+00 2.5617312521301130e+01  8.0141671495643365e+01 8.8657402591772598e+00 5.8120844590471400e+01  4.3392011870247508e+01 -4.9954709466713041e+00 5.0936198453187210e+01  -1.0344320142630266e+01 6.6401304156215435e+00 3.3744663707203848e+01  3.0923720786985886e+01 -1.3097730824119358e+01 1.7099739401826938e+01  3.9159881696000610e+01 -2.5412120943599641e+00 5.9595305991903537e+01  3.1085668860153110e+01 -3.2984522710321663e+01 -3.0754429017084632e+01  4.3959460837842940e+01 -2.4402084049279971e+01 -3.4448853764852686e+01  3.5420372987518746e+01 -3.5105657858062663e+01 -1.7302382526705220e+00  5.6578389318100619e+01 -1.9910056147300459e+01 -4.6320966633216090e+00  6.3479897930091717e+01 -8.7117698282877800e+00 3.3217567474454427e+01  6.1920392203615052e+01 -2.2545610205117633e+01 -8.1289346278694090e+00  9.7304008895791114e+01 -1.1142012933404875e+00 3.2693111007832151e+01  4.3800236971002782e+01 5.1903999827166922e+00 5.8342144695356808e+01  6.3298643461260625e+01 2.4861227059358541e+01 8.9879410029125566e+01  4.8616712195548452e+01 1.8459218874440577e+01 5.8079916610096724e+01  5.7353013051191290e+01 5.0827451172147597e+01 4.9935192355919810e+01  3.8560550901769233e+01 2.8514855700775520e+01 3.8714490662021397e+01  1.1686958133949856e+01 4.5437855212990122e+01 1.8709555191679712e+01  2.6249845946410879e+01 3.6466723083081284e+01 5.0131488566680069e+01  5.3860395670947412e+01 -2.0910877373457598e+01 1.6113568223887430e+01  6.0785877627514957e+01 -1.3062279543659407e+01 6.5049779535259233e+00  4.6977195094397842e+01 -3.0153617032413383e+01 1.0986619428026099e+01  6.8017883518619584e+01 -1.8160306931817669e+01 4.0012372733901962e+01  3.7636797552131952e+01 1.0951939712619000e+01 2.6332365557496892e+01  5.3010403999566464e+01 -1.2457078609985205e+01 5.3192210647872997e+01  4.7743750141287613e+01 -1.2383753033050441e+01 2.3673074721144115e+01  2.7429680698819297e+01 -5.1373219765400002e+01 -6.6405469859018869e+00  3.3074215581852009e+01 -4.1169333209465144e+01 -4.9068172917564574e+00  1.9125490820225412e+01 -5.0674467058689999e+01 -1.0423240028348493e+00  3.2753867454730610e+01 -5.5527156175448667e+01 -9.6672871365357853e+00  4.7097827506071205e+01 -2.7523290740985306e+01 1.3728342509094359e+01  7.1484720648924778e+01 9.1901533932542669e+00 6.8750778717940690e+01  6.2584998040115622e+01 2.2136332288623386e+01 6.4401520769710899e+01  6.1826271112011490e+01 -3.6402771680965841e+01 5.9292579317921735e+01  3.7021576824604630e+01 6.5916324764709898e+01 -3.0587197328623400e+01  3.9605531295582459e+01 2.2060076830194774e+01 -2.6597565878242918e+01  1.5235349430009691e+01 3.1167313279761608e+01 -3.0111732366373889e+01  2.0314527692283527e+01 3.1289609735130647e+01 -1.1060968511727953e+01  4.2149544659016527e+01 3.4254621812624130e+01 6.3217048396238802e+00  4.3349643735960967e+01 4.5801099829547042e+01 3.2889173901967528e+00  4.2742917239429907e+01 4.7021395007681200e+01 -9.3576096501429333e+00  4.1303208881895564e+01 2.4322197362791421e+01 3.2117484796692626e+00  -6.9929124836655081e+00 -1.6951901210579283e+01 1.4282570138876158e+01  4.4988185482683596e-01 -3.8880850788684853e+00 1.8607576540394015e+00  9.5967239492067815e+00 -6.3947900400814088e+00 7.3780808806244105e+00  7.4562908556532905e+00 1.5552224175673277e+00 8.0153911071660019e+01  2.9756775430949469e+00 -4.5497866253270534e+00 4.0846685543863693e+01  2.2889521547443398e+01 -6.2563484034251253e+00 4.6662695842949702e+01  2.6738111453600659e+01 -1.2009893519517165e+01 7.8413900093199260e+01  4.1511735370619448e+01 -3.9100648316960807e+01 -2.5594179430835723e+01  3.5694800335923766e+01 -3.3970820502301642e+01 -4.9284959884572954e+00  3.0552309758977295e+01 -2.6236597335543198e+01 -9.4713889344160478e+00  2.7547112477598727e+01 -3.4915672722396955e+01 -7.0421737515138219e+00  3.4051522634323931e+01 -5.1474767806512425e+01 2.6523572748105913e+01  2.0167987667145290e+01 -4.7483062061905571e+01 4.9448846466572462e+01  4.2083950204118679e+01 -3.3915154054680293e+01 2.5581994573599250e+01  1.9830051401953359e+01 -2.4140212703274294e+01 -4.1489318108771309e-03  1.5109609200395159e+01 -3.0903753024711126e+01 -3.8929521186110067e-02  1.7574777647477781e+01 -1.9688083892194442e+01 -4.1549225173014062e+00  2.4850464875743164e+01 2.9927853836929481e+00 -6.8807196288742860e+00  4.6651193056258023e+01 7.7486514074258906e+01 5.2096490082210394e+01  4.9470613475948426e+01 3.8941795413854919e+01 5.5565201830331269e+01  4.6438952777497136e+01 -8.4641165500637623e+00 6.5615433791691629e+01  4.9179530494724780e+01 9.5652861351292440e-01 7.0800091480958670e+01  4.8527216638696672e+01 -1.0736729107050264e+01 4.0277862739314656e+01  7.7664662342229093e+01 -2.6800598603884942e+00 5.2784950688095151e+01  5.6401464356275959e+01 -1.9489304069324970e+01 1.2955302233433635e+01  5.5794468965720718e+01 -5.0651955267644511e-01 -4.2396743054241789e+01  5.1494223851591265e+01 4.8145926871135451e+01 -5.6542525065540282e+01  2.7765312938005405e+01 5.2945314275630665e+01 -4.9903643348357129e+01  7.8647675209284969e+01 3.8813145037998638e+01 -2.9493407885880806e+01  2.8928587221662440e+01 -6.4228525674316273e+01 -1.1862848039817239e+01  8.7005319008137505e+01 5.1651198495208583e+01 4.6797188252822465e+01  9.5023068009437495e+01 3.0976133660465702e+01 4.7292871695866836e+01  1.1873169003376057e+02 4.0176184934080020e+01 4.1949650327684346e+01  7.6105488865312964e+01 2.8044098097011407e+01 -2.7608944293444917e+01  5.9286614775502031e+01 3.7983540592975011e+01 -2.2223334274126898e+01  7.2015708575737762e+01 7.8726103866271728e+00 -5.8472025035108928e+00  5.0810133081659288e+01 6.1498931080001364e+00 -3.2914670216394804e+01  3.7021209518795665e+01 1.9999618361938641e+01 3.2835672608896793e+01  2.9065046804885981e+01 1.0877361512917178e+01 9.0965114525085994e+01  8.5568267659622379e+01 -1.3808055144525015e+01 3.5595590266778359e+01  -3.1785972226833521e+00 -2.8461686994088641e+01 7.1002197639833184e+00  -3.3283634563582415e-01 -2.6991015742373868e+01 2.2533266736900757e+00  6.8986353865439236e+00 -4.1040545892356313e+01 4.4152839269151617e-01  3.7083916001399544e+01 3.4410397247730600e+01 1.5483442985831575e+01  4.7245687292805627e+01 3.7255239586851012e+01 -9.4983031183208162e+00  5.0281120221989482e+01 2.5053523899640449e+01 7.9610140702294245e+00  5.9311506311659350e+01 6.6389283862831965e+00 5.9702700526747797e+01  2.3325308390777945e+01 -3.5278956057796343e+01 1.5031445464054416e-01  8.6180169909548638e+01 1.3788357036852763e+00 7.8962911025649120e+01  4.3760550077258287e+01 3.3211582633805699e+00 1.0623308907053314e+02  1.2354347228198696e+02 -2.5354804909159769e+00 8.5659723969140288e+01  5.0807389179749251e+01 -5.7196759278095719e+00 4.2256786535751068e+01  4.5406138294341780e+01 -3.1858797690523555e+00 3.8008339926161817e+01  4.8713013294513992e+01 -1.6090125825560964e+01 2.1945398444810028e+01  7.2171311956065850e+01 -1.9751264216121525e+00 2.5494828514322670e+01  6.0767137800459118e+01 -3.3902649247346929e+01 3.5503295111580016e+01  7.9256478085650528e+01 -5.8561991094866199e+00 5.2506785260562630e+01  4.8007175480049142e+01 1.4134056682368772e+01 2.9076280235878475e+01  4.8403104556567115e+01 7.8840713951025760e+00 2.8694531112451678e+01  5.1028875856370504e+01 -3.6991526517826308e+00 2.2148785974494761e+01  5.1969887737121873e+01 1.1675174998613397e+01 9.7177313296999532e+00  5.1429483875626609e+01 -8.6428593379950924e-01 3.1497982933116493e+01  -1.2626788119431648e+01 6.8467121573812868e+00 -3.0675342543356097e+00  -4.2987828743196816e+00 6.3999681485648239e+01 -2.5590155545954676e+01  -4.4985734397893591e+00 9.6602654667559982e+00 -1.1040884118350158e+01  4.8130457625107020e+01 2.3164929651893811e+01 2.3436072640155977e+01  4.8802473287854170e+01 -3.2894595593582476e+00 8.9392149652486486e-01  2.8273927626336835e+01 1.4112695318683405e+01 3.2582980462752303e+01  5.0318300944225648e+01 5.2747508624543961e+01 -1.4425451523968114e+01  2.4355540147199342e+01 3.3498244346905558e+01 -9.3866373129605911e+00  1.7617082367952754e+01 -1.5656922887838135e+01 -6.8628467250038456e+00  2.4685096331297057e+01 -2.8796985333416245e+01 -2.2130377585503793e+00  3.5921888090593605e+01 -3.3393512381289167e-02 3.8901303519125427e+01  3.5801326755887132e+01 -7.3831445863565537e-01 5.2584280941446970e+01  3.1891801121173245e+01 -1.0524107900521591e+01 4.7434326298418320e+01  4.6336180995123726e+01 -2.4705545847290235e+01 -3.0624431837624289e+01  1.2005257834377677e+02 -4.0997829514927119e+01 -3.2839528566260881e+01  1.3291005558374411e+02 5.0031160038524263e+01 3.6644374981894927e+01  3.9156023059975837e+01 -1.3861477854799842e+01 4.1936646473775134e+01  4.4309048839663902e+01 -2.0412251994680034e+01 5.6318962161699531e+01  3.4007523147398892e+01 -3.2159536943353409e+01 4.0472510311900407e+01  4.5311282571290349e+01 -2.0318410176656020e+01 3.1552127658642668e+01  4.7308697154973771e+01 -4.7376655550058704e+00 1.0193955485644689e+02  1.0429915851956321e+02 1.2732092199966782e+01 1.3413747135803769e+02  8.7818530474666446e+01 -2.1903832794091301e+01 6.1610662887334279e+01  1.8907622010917454e+01 -5.4513656066466138e+00 2.8079003057072303e+01  3.3567815785115734e+01 -2.0569526800016000e+01 -1.4367622660941391e+01  3.0021876414998072e+01 -1.9718770845682215e+01 -3.6362315137045007e+00  2.6840821522715643e+01 -2.1857391208765041e+01 -1.2027861142203243e+01  3.2247447622023387e+01 -2.8814519981836231e+01 -1.8759636236312738e+00  2.6936516493901898e+01 5.2294348780530434e+01 6.8986096688335508e+01  5.0056835580550654e+01 3.9909148389237139e+01 8.3640442651538294e+01  2.6111213167707145e+01 -1.0921522523883226e+01 9.7059813004152176e+00  2.0696644608601815e+01 1.4296491331078926e+01 3.1858278474627003e+01  3.0493159282235371e+01 7.9621383286477021e-01 3.2870068881406176e+01  6.3475749987874615e+01 -3.2835416891779850e+01 -1.8599205203367017e+01  4.2396970977566383e+01 -3.7249417147789416e+01 -1.5452897496304393e+01  4.6528260689452189e+01 -3.0928277935231598e+01 -7.2590925215237538e+00  1.2572874224977824e+01 -4.0805837843834446e+01 7.9632063929855379e+00  3.9631292623757659e+01 6.7298061145622139e+00 2.3220752597366001e+01  2.0599949703613301e+01 1.5146608977821430e+01 1.8247735200861513e+01  3.0170102774338776e+01 -1.3904781050745889e+00 4.9117088455638402e+01  4.4457182648658822e+01 -1.3381979961831421e+01 7.0579512582288970e+01  1.4128976485869037e+01 -9.0188619205111618e+00 -3.6836620614581412e+00  1.8986033997150457e+01 -1.3767275614404378e+01 -8.5633959908957689e+00  8.5211284470429703e+01 -1.4227620446260412e+01 1.5587449161619574e+01  8.2660664992200211e+01 -8.0407771970574622e+00 4.3637900396426026e+01  2.2520823313590931e+01 6.4718932846738531e+00 6.2772930971611824e+00  6.1009835487339483e+00 1.8132664643287237e+00 2.3791557869972069e+00  1.2833238833200156e+01 2.1939729943012118e+01 6.7792903691290469e+00  2.2376666021432008e+01 3.4341440459172716e+01 1.8542852753185333e+01  7.8264150880479004e+00 1.4059883937540738e+01 2.1287996753315120e+01  6.2415502210629676e+01 2.8040524334211643e+01 5.1025205876971782e+01  5.8220389059682248e+01 2.5516729153331021e+01 3.5598329957513705e+01  3.4700465239457579e+01 3.7819802215926146e+01 1.4908841110299853e+00  4.3731354259834760e+01 5.8943425463095302e+01 9.1541369930577143e-01  4.1510617566799418e+01 6.1594208218303407e+01 -2.1209813842312517e+00  1.3381823554941809e+02 1.6079312221209214e+01 5.1744166038336154e+01  6.7591332942683820e+01 8.4142583869400962e+00 6.6638870916610941e+01  4.9213997750353386e+01 1.1955169441448986e+01 1.0694095714396531e+02  3.2019050350736954e+01 -3.7511674777392699e+01 5.6928697689633809e+00  2.5424928457541583e+01 5.0735806557110038e+01 1.3431286934398070e+01  2.2174871523116792e+01 8.6225867538186201e+00 3.9981307882872407e+01  3.4453989590185863e+01 1.6380826367721490e+01 3.7172167794778957e+01  8.7505951289373574e+00 -2.1569340020830612e+01 -9.4937357055374836e+00  2.1921928825128077e+01 -3.3193762176474578e+01 -1.0579088029431457e+01  7.9564059476900395e+00 -2.6039787522128794e+01 -1.1415813779543891e+01  1.1796772780583409e+02 -4.7336269869184573e+00 -6.8205789301528048e+00  9.8004844599042130e+01 -9.1333755238465191e+00 1.0734798638666394e+01  1.2123960138431791e+02 -9.0941213998549472e-02 -1.4504770373072164e+01  1.0054221720018656e+02 7.4229480600830149e+00 -8.2264619974870712e+00