<?xml version="1.0"?>
<VTKFile type="UnstructuredGrid"  version="0.1"  >
<UnstructuredGrid>
<Piece  NumberOfPoints="637" NumberOfCells="2154">
<Points>
<DataArray  type="Float64"  NumberOfComponents="3"  format="ascii">35.019825 35.509727 6.708842  36.092964 35.28476 5.975733  35.989189 34.621014 7.430953  34.15499280279905 34.0534500365502 6.497917091016387  31.647417 34.678417 4.722976  30.987957 35.943874 4.446743  32.30655553956512 36.55415889589077 5.451758228389459  32.51538653934396 35.74664726058705 3.678431763241696  35.274319 30.225479 9.871983  35.114864 31.107714 10.758139  35.8997 31.153934 9.544501  33.58059571873815 32.20922836638618 9.353823280268672  38.409668 35.62355 3.534725  39.045589 35.3615 2.768748  38.425472 35.700558 2.309649  38.79645801129972 36.72856922647767 2.800950907912739  34.44493899460467 26.9058937973461 14.13960418041887  32.575871 26.975361 14.094378  33.72354818365801 28.35407501110664 12.99858190767494  33.71155427756356 25.83551539363597 12.75910498616414  32.657158 34.416611 9.554452  32.573257 34.181324 10.741862  32.10854791826489 33.65448700710482 9.270663226504617  32.53770858522817 31.64001140171058 1.93738314706581  30.738018 31.462175 2.155515  31.99506853625383 30.87987966050646 1.231882743104286  31.83088266457505 30.58170082468695 2.84644408702718  39.95923699999999 23.751343 9.502115  39.95923699999999 22.313261 8.22038  39.286686 22.103052 9.58005  38.57562331150096 24.1077628585069 8.68805286846932  38.082989 21.331476 10.345569  38.342354 22.964693 10.635325  36.94529783108348 22.78958679639232 8.671627194051613  34.19994 24.264839 8.526251  34.82075508880989 25.30697892660874 9.68443242707804  35.76999022009703 24.1207998932295 8.531660846683211  35.07292805065683 25.00892182982742 7.386393722596573  32.296036 31.374489 7.359776  31.905575 32.928005 7.863296  31.162989 31.858873 9.088481  32.699245 20.494833 15.48994  31.580404 21.256811 14.826095  32.88599 21.744513 16.143555  33.6699431425881 21.37991669306913 14.37512726662963  33.22531096201951 21.07120949511605 12.04563379495439  31.431259 20.236984 12.190152  30.975815 21.533703 13.16698  31.573133 21.625513 11.708783  37.07745671219089 25.14268489050336 8.107362996607389  36.72073881327252 23.77751661789184 7.444019122386522  38.58388604296999 28.03786196081811 11.73263827320705  37.15325702724597 27.33043487050511 12.89050351474692  37.09853093293298 29.11728572150489 12.64049977812011  37.36213656463291 27.92596710435822 11.35745261953426  31.637781 40.003617 4.12709  30.638256 39.369396 3.439399  31.249969 40.003617 2.262346  31.87102466345231 38.79332527123101 3.100517177550898  30.363667 23.39966 11.771059  30.28607 24.501541 11.042825  29.61895 24.459162 12.199818  31.30579273995334 25.19138644615594 11.63027517256306  35.672417 40.003617 2.094389  36.261822 39.259109 0.963677  37.70721007554933 38.14656100336292 2.764779059347041  34.59681078874483 37.46384660156862 3.048605857051362  31.349188 30.437149 8.582007000000001  30.368242 29.606213 7.744674  32.73958513562391 29.93196640640533 7.793323019067112  31.55718279735721 28.59111271330592 8.81077644083183  35.062977 18.632616 13.648388  35.638252 19.833145 13.698142  36.081757 18.81348 12.807213  34.18874335893275 19.67146913448504 13.37514374749677  30.87109365367296 26.8849725698396 10.92244276351216  29.509491 25.915756 11.395493  30.519466 26.277039 12.934717  29.794325 27.084658 12.259007  31.355055 23.132683 11.150666  31.189301 24.749647 10.357394  33.97113158021872 35.18649207812116 5.222144840884883  36.505695 36.135555 4.871485  35.30541658932306 34.78954646344761 3.632827492066192  37.85627926122391 32.91194970629338 6.260151505076426  37.738785 31.114697 4.984148  38.34669164558338 31.37514572790607 6.832719443844077  36.36605954178516 31.88755104085037 5.655327266431345  35.004646 27.99407 5.816846  34.14517459273151 27.18087147838083 7.045570730551598  35.34596538392422 28.50452205324395 7.669765215352161  34.05400806989501 28.9626988498375 6.558652362370568  29.102997 27.04961 4.240845  29.711945 25.946825 4.754125  30.3476245558212 26.70512169331781 3.401425727664599  30.72083754700894 26.92348160643779 4.904483654801585  31.798969 19.959963 14.689488  34.973087 39.24736 6.176987  35.918827 38.368511 6.356998  34.477497 38.171272 6.214979  36.09129300886164 38.86277186577046 4.989525051266564  29.935051 30.093563 11.781764  29.297594 28.523289 11.5951  28.449205 29.638262 11.265944  29.38707941070366 30.406669450325 10.58458462868081  28.70242562837611 29.11769923070267 9.880789359231608  27.32543180562255 30.30172210112325 10.01804861380111  32.915276 19.519865 14.834784  32.034069 18.913986 14.035913  32.48348682772644 19.79171200094674 13.03232934156287  32.27908545241349 28.27803558127382 7.254989371805378  33.6854285820293 28.48144418510355 8.938998504701335  32.06396994777809 27.17349609094438 8.302588137750906  34.505676 19.968157 14.753019  35.09624092599402 20.69565286944351 12.91386065711846  32.66021001361487 26.78411468373913 9.769918890013633  31.940779 25.808481 8.475320999999999  33.74539267725853 26.46909825861078 8.205014306138223  34.03484 20.876394 16.173899  33.605762 20.103954 15.450896  28.282425 31.724621 12.058817  27.466869 30.359407 11.862575  27.055782 31.579859 12.692536  27.12696779995493 31.93566955843893 10.45242779890855  30.111422 36.800362 5.664861  29.17631 37.034531 6.650057  29.6060765 36.406725 6.3725495  30.87850889471838 36.95833390447274 6.805917311563364  31.15229 33.473907 1.114638  32.43095 34.381485 0.03180900000000003  30.887251 34.665646 0.634257  31.4677203624441 34.61987038572607 1.364086300991664  36.656406 37.42128 5.372042  37.514839 36.525761 4.456401  34.27392028808118 31.39268655335822 11.41612166261224  34.41271637371948 29.42744006895548 10.72841415685623  32.75511796668447 30.49527922383253 9.909318133939216  33.45397039463018 30.18495903745463 12.30840288700823  32.718121 29.292521 14.372196  32.027798 28.638292 13.369752  29.562263 28.386034 7.781563  29.705112 28.878401 6.621784  30.95026032825376 28.05960104677485 7.246151046189673  39.219265 29.39115 14.454054  39.95923699999999 28.53154 14.125939  39.337559 28.433311 15.667714  38.09041982508845 28.09430564118597 14.30416873529892  39.195301 27.089247 14.234897  38.35486632720353 27.54385819200505 16.11816101144678  32.866444 24.962643 7.403517  31.796257 25.045465 6.16874  31.458775 26.025341 7.007673  33.41180676082478 25.62540446468846 6.15120939933902  33.61982975396021 34.53816500777147 2.034649613616282  34.906219 32.473385 2.26955  33.85259446596493 33.10788127491428 3.804895083902452  32.79291652797375 33.04429573074476 1.923140629381029  37.792011 26.22813 13.581568  36.68272665660825 26.78276858287313 15.14694963450476  36.17901066472882 26.39919008270568 13.34939468067307  36.848953 24.092699 13.045446  36.920185 22.876127 12.388737  36.535526 22.600006 13.369076  35.5014917831413 23.53827805228089 13.4000296856548  34.932507 22.819136 16.803036  34.826694 21.680168 16.496342  33.779057 22.495502 16.907923  33.87795675795707 22.13084406285505 15.74825345320604  38.68281224702082 28.42095489301582 12.94872480259355  30.76022 30.791368 9.663792000000001  29.728241 31.588749 9.821804999999999  30.849645436817 31.08156021928875 11.02236138404608  33.603859 26.551884 0.75903  32.68768787344062 24.78942777476198 2.005033206797598  31.60843694625038 27.00647013742699 1.666338716820013  31.918205 26.024876 0.03180900000000003  33.82333814521076 27.26298604468581 11.08077633668816  33.00672304732499 25.41982923632601 10.92345271562961  32.13243001906305 27.02465748138695 12.17009170276968  31.199759 30.641989 5.254167  31.567343 30.331091 6.800596  30.365078 29.86915 6.101198  32.37575256522609 29.34196398726457 5.450627554318137  36.587276 25.308704 6.850597  37.370625 38.169968 6.275145  38.544292 39.154324 6.811904  38.162529 38.642948 7.036705  38.658348 38.574642 5.89533  33.32938164731155 22.93339117838961 13.24033804393277  34.96829898736204 24.10663526893857 11.52610905062539  32.607815 32.04517 5.187562  33.06792503651062 31.49496306658655 3.560163939553541  34.16350306558391 31.82609381167786 5.435687501416266  35.09937307974442 27.69772659525215 9.757838159463967  31.045166 35.424206 5.700847  30.62904865327827 29.29512188758119 10.38889158320047  30.17942390310479 28.88570672960399 8.92191051265643  31.1675 27.29537 12.957794  31.611418 26.212767 13.293109  37.134335 25.174412 11.633697  37.404659 26.364738 11.936241  36.77753190124908 26.81595946537854 10.13884053390075  35.70322094695693 26.01083930643547 11.91547753808877  33.05778892684346 31.57737861942122 0.6469263784938404  33.483868 32.260162 0.624035  31.331318 32.178459 0.932033  35.287498 32.436573 10.276104  39.045048 31.620399 5.235123  39.102795 33.003796 5.203533  37.983917 32.89534 4.745526  37.614899 24.73317 16.113869  38.551544 25.81303 15.1433  37.421959 25.171419 14.254017  33.947422 23.894484 17.263475  33.179119 24.718264 16.453421  35.14412849819648 25.71009126210198 16.62532411548912  34.39412204477293 23.50591577161926 15.47422410206821  29.668976 33.348949 9.184434  28.02956 34.407486 8.994922000000001  28.091822 32.671803 9.422447  29.04299313391162 34.90002869811852 10.00681151101938  30.149429 36.273663 1.792984  30.660769 36.205776 3.10062  32.01203291450773 35.89667556243403 1.633762935329485  31.37335279335632 37.86034851142553 1.616787027682415  30.395136 35.049206 2.061359  30.848413 33.961197 2.283572  31.79418863526838 34.37028366089609 2.458694493471925  37.215843 35.486614 3.195745  37.435703 36.090324 1.366007  36.315792 30.229698 11.661575  36.13294637041835 30.48346666525149 13.63537315577716  35.05355049353762 29.79179420147144 12.55956854339069  29.978769 38.915298 2.522619  33.54295 18.312618 14.135041  35.81528411895719 33.41642157444047 5.320264834920135  33.71365 31.663773 1.271924  31.74481275621517 24.05424748310785 12.30214797557961  30.483604 38.936527 8.569262999999999  29.302568 38.73864 9.
[...]
<PointData  Vectors="u"> 
<DataArray  type="Float64"  Name="u"  NumberOfComponents="3" format="ascii">4.9613520360368298e+01 -1.8725061467930701e+00 -2.9533490764520344e+01  3.8500733351805792e+01 -1.2473008576415983e+01 -2.2426717933550194e+01  6.7844998637797872e+01 -2.3461034001218199e+01 -2.3396962078699598e+01  5.7757267723176206e+01 -9.8988637397652148e+00 -2.8982641939229417e+01  1.2931886252073532e+01 -2.2529214596487154e+01 -4.9370336727698138e+01  1.2921961323605498e+01 -2.4532207079290725e+01 -7.2649911988699728e+01  5.7700871965874043e+01 -2.9297616885880768e+00 -5.7230463571994868e+01  2.8652701899076533e+01 2.3902493180538951e+00 -2.8872379744989036e+01  5.3930975460902118e+01 -6.1211307666564984e+01 -3.4958238523174558e+01  2.7195691019846560e+01 -5.7130611564234471e+01 -7.6152367428855685e+00  9.0585193065428228e+01 -4.1544789148343867e+01 -5.6069890659695481e+01  8.2205136981919551e+01 -2.9806263979286140e+01 -3.5577205204800016e+01  1.3456459428154176e+02 -2.5969321390667634e+01 9.2268225950001188e+00  5.0408092872582863e+01 1.4752055906687702e+00 -2.2002395707004421e+01  1.5606006344187583e+02 -3.3211417566176941e+01 -1.7397888979037754e+00  1.8130761951254090e+02 6.2816492047786390e+01 -9.5667031405881175e+00  5.0386507335408048e+01 -2.9622770220775021e+01 3.4063057510449831e+01  5.1086305546282162e+01 -3.6853178450040005e+01 7.2580300895868433e+01  7.2002290816502395e+01 -5.0103213767261792e+01 3.2759039630258449e+01  6.0228457958348898e+01 -2.8005226143750001e+01 2.7143004263862387e+01  1.3047101818517115e+02 6.6051389872577886e+00 -4.6774795123419771e+01  1.2574630127891703e+02 -3.2692200259813056e+01 -4.3288455725313234e+01  1.2070687189666994e+02 -2.4415588570018873e+01 -5.4306888176688986e+01  2.4642326142971662e+01 4.2275862790635010e+01 6.1797980479544705e+00  3.1187455523836274e+01 5.4858640731223119e+01 -1.2594152406284167e+00  2.3101790443027038e+01 5.3076466611468092e+01 7.1498282313616226e+00  2.9927906756661308e+01 4.2145459840742788e+01 1.3020067295354085e+01  3.5830861905180427e+02 4.2800880355783001e+01 -1.6959031174743177e+02  3.1258676380405990e+02 1.6848078252250655e+01 9.3268051094138360e-01  9.7664302179351381e+01 1.8362294690537720e+01 -9.9360116929402849e+01  1.5718236070597973e+02 -1.1427766215649406e+01 -1.2608072655933103e+01  8.1619905184927077e+01 -6.7061667590657281e+00 -5.8966516984187088e+01  9.8638226512441406e+01 1.1341887263123944e+01 -5.8583087617322143e+01  9.4856708915095595e+01 -1.3103888237024256e+01 7.5367930678216843e-01  6.8316339345239001e+01 -5.6212399350926098e+01 2.9104733901423135e+01  7.5887425288414136e+01 -3.2866400901583276e+01 7.1593030399298510e+00  7.7990608847051405e+01 -2.9612380049254170e+01 1.5335695752149419e+01  8.7326109498826526e+01 -3.1456058552066665e+01 3.7775442087001558e+01  3.3572351294503704e+01 -1.1038768419801698e+01 -5.2975597866473258e+01  7.5662041075568013e+01 -4.7990246396106997e+01 -8.4011306965377358e+01  1.2848131770080596e+02 -5.5342225626710494e+01 -9.3273426047842904e+01  9.0761533913859420e+00 -1.6720163047099004e+00 3.5221770509116910e+00  8.3561114267360814e+00 -1.5008386875935718e+01 1.0922081856751980e+01  1.3307417721429186e+01 2.6322719038932121e+00 1.2258159058637018e+01  1.6305887129907696e+01 -5.0632206246904170e+00 3.4403798267504984e+00  2.2187980405978163e+01 -1.6335358521733610e+01 -9.5347033917678843e+00  3.8478123300308433e+00 -1.5695536547614303e+01 -9.5733673987074379e+00  1.5799612759357613e+01 -4.1479249711190853e+01 7.5923575037747746e+00  2.2855938266932142e+01 -5.0704013430180495e+01 -7.7766918313714575e+00  1.1324081189700037e+02 -1.7315827399758366e+01 1.1198467585697436e+01  9.9309336557118172e+01 -1.8729167795819386e+01 2.4621462225759231e+01  1.7040680386198659e+02 -6.4732681685525395e-01 3.4200720983983328e+00  8.7734788475449008e+01 5.3476977248372692e-01 2.2194546449327248e+00  1.1529839407692749e+02 -5.0365173038485516e+01 -6.8166258949394818e+00  1.2037516724423094e+02 -1.0830304413359986e+01 -6.1079454890294382e+00  3.0187513630841124e+01 2.7503003537263946e+00 -5.8688014161640417e+01  -4.0535868865430276e+00 1.3772209062229109e+01 -4.0929358020638709e+01  7.3147883393393167e+00 4.4008864056836866e-01 -1.2574284902845360e+01  2.5380048011389274e+01 2.5554369179621310e+00 -3.0369216938945684e+01  5.8260819281622268e+01 -9.4917332848414475e+01 -3.0718177318517505e+01  4.6225015381515824e+01 -6.6223968729968576e+01 -3.5775451579383812e+00  1.9385516714783867e+02 -6.5390480536745969e+01 -1.5576351930519166e+02  8.6691657331609477e+01 -5.2058528223061792e+01 7.9162018040459259e+00  6.4165115270262604e+01 5.0906935776290183e+00 -2.3017205894494812e+00  6.7937785711862944e+01 -1.2705865808911441e+00 1.0702950530442152e+01  1.1990678633965778e+02 -5.5816900754391874e+00 -3.1508178473270307e+00  5.4588138806817724e+01 1.1735340827388821e+01 -1.4455625539899801e+01  9.5283968013561392e+01 1.4479267792501521e+01 -8.1580926128005373e+01  1.0001263544625405e+02 2.1299458333299057e+01 -1.1737432875683727e+02  6.9000322323280017e+01 -1.2056224561635270e+01 -1.9663284845189711e+01  1.1528463540497249e+02 -3.9351653264811134e+01 -1.8707952029811217e+01  1.9464164231123952e+01 1.1768497626340992e+01 -8.8203501423702484e+00  1.3255453631456506e+01 -1.5182759225343334e+00 -1.3345557788046575e+01  1.7863711475043676e+01 1.7063122966291719e+00 -2.4801465008765891e+01  1.5126505782008500e+01 9.5476946628797743e-01 -8.4972319957680256e+00  1.0209087321695959e+02 -7.2155854578723435e+01 2.7731043842129996e+01  -2.4390883187515030e+01 -5.1491141484384308e+01 1.4523309109944220e+01  6.5815215815991849e+01 1.5768801742723911e+01 3.7682256734581721e+01  1.3938713361271098e+01 -7.2243649312625351e+01 8.5089054768732140e+01  5.7359433528313360e+01 -6.9131227798861332e+01 7.6785444759448640e-01  6.1486806518611282e+01 -6.1574732993882868e+01 1.2179486713261024e+01  4.8677290488864998e+01 1.5934201603285525e+00 -2.8259539171621217e+01  5.5873415614553210e+01 4.9868012600847429e+01 -4.0973137178913632e+01  3.8321707036016278e+01 2.1396657739474282e+01 -9.4977383594345000e+00  1.1160596146245854e+02 -3.6657656956946802e+01 1.0485714521404942e+01  1.2051876234218237e+02 -2.3381776928022074e+01 3.6481316830524797e+01  1.5800547100334245e+02 -8.0702232116582291e+00 2.2223611270171233e+00  8.4140117261192898e+01 -1.5784771451428989e+01 1.6839009448881939e+01  8.8450523683824656e+01 -6.8962791926596498e+00 4.9086954356921851e+01  8.2605591588180303e+01 -2.1804329655620261e+01 3.0326598093457296e+01  9.3522240037822883e+01 -2.5575355196165564e+01 1.3707414594477360e+01  7.4915666363100300e+01 -8.8676670539741771e+00 1.8419937286672852e+01  1.0281473895725403e+01 5.3261444751068687e+01 7.6121181574181890e+01  4.5230231806312432e+01 3.6918427933178165e+01 8.3965685106821553e+01  6.6916469181453166e+01 4.4807435477016746e+01 6.8492048980625214e+01  4.3709877023379200e+01 1.8250366813887123e+01 5.1116781925213608e+01  4.6496649176795177e+00 -6.5447577261951224e+00 1.9001157999972322e+00  9.0283678288091096e+01 1.7153898169999234e+01 2.0032269979327747e+01  7.7298937102105100e+01 2.8979826133362110e+01 2.9002311789603386e+01  9.4491946891211995e+01 2.5077006940277144e+01 -1.9486739988945843e+01  7.1721595038107623e+01 9.4363806500887328e+00 -8.1028031560532678e+00  1.8828516607916015e+02 -8.2403394254474605e+01 9.1735211468082554e+01  2.1577107135906161e+02 -1.2819496188533830e+02 1.1801676841316069e+02  3.7769845613192695e+02 -8.8961272836504051e+01 1.6367826706141408e+01  2.4526756144945372e+02 -5.1755656278753975e+01 2.7491384826067087e+01  2.9228566174660938e+02 -8.9602330255872033e+01 2.0995580820971313e+01  2.2117265061263325e+02 -2.0984694919250946e+00 1.6187046090280631e+01  6.9522144135528174e+00 -2.1506159232459536e+00 7.4681131927234468e-01  1.9038726282355818e+00 -2.6335210114075713e-01 9.5903781593958204e-01  8.5341330897435785e+00 -4.8822704453530896e+00 -4.7703420089230608e+00  7.2235266987233672e+01 -1.6936620489563207e+01 1.3057180557533121e+00  8.7728668978339698e+01 -3.3963975617757058e+01 7.3541480923261593e-01  8.4816870200315805e+01 -3.8993519778478500e+01 2.4200647341760786e+00  7.6937429081687698e+00 -4.4103706976620471e-01 -5.9035178125753864e+00  1.9171483545054361e+01 -4.0388402677465773e+00 -1.4685882328136016e+01  8.5762596596898305e+01 -4.5948385548426742e+01 1.2172396480982975e+01  7.3060549215376099e+01 -5.0443507693099420e+01 1.0475687179320776e+01  8.1721795412130945e+01 -3.3080879642347277e+01 2.1501621981404476e+01  6.0726090602394276e+00 6.7564837200997143e+00 7.1945596628212138e+00  5.6153076508505730e+00 2.7684267549164630e+00 -3.4671359925428302e-01  2.6840838185473365e+02 4.5999397147674166e+01 -2.9749930244676523e+01  2.0220276399101053e+02 7.3453546255009371e+01 -1.1892187426407409e+02  1.5084839130801191e+02 9.0020436024614526e+01 -7.0826049152342932e+01  1.6950568880734926e+02 2.5740180118060255e+01 3.3750277663679007e+01  7.5700837972291211e+01 9.4032632724696263e-01 -1.2945239071270092e+02  1.1142940392146657e+02 1.9562757031552600e+01 -1.1965068662653104e+02  1.1712321781721923e+02 2.2210498319486245e+01 -1.0874736748663329e+02  9.7393053989670491e+01 -1.0087490538566577e+00 -9.7431624635362965e+01  -5.6397228314980303e+00 3.0835190015844812e+01 -6.3230353152663801e+00  9.2968067876033960e+00 1.9518159554756693e+01 -3.6262654608212044e+00  3.3622333785454930e+00 6.2171522781215920e+00 -5.7571210792816894e+00  4.2946359013432991e+00 1.3225040662489661e+01 -7.5682637055672259e+00  9.1248982885195616e+01 2.9910126561945404e+01 -2.2044372396678796e+01  1.3484937590050481e+02 2.2423547850690124e+01 -2.6200173329958815e+01  6.2971019512542121e+01 -5.9333282405337549e+01 6.3091770580369193e+00  8.4646186845566376e+01 -5.6626194847332627e+01 7.0877068663031704e+00  9.5716466381247670e+01 -3.9577426136594980e+01 -1.8009960508875167e+01  8.4497461060009655e+01 -6.1648792318842737e+01 2.1752130202789886e+01  4.7946809485855674e+01 -7.4985632548633305e+01 5.9085301414603194e+01  7.0085726307424281e+01 -5.7422393697267331e+01 6.5276626493685015e+01  1.9762520778435552e+02 -6.0162265423412791e+01 -2.0782487037222469e+02  -2.2158183805628127e+01 1.8859146247715760e+01 -3.9717298738216670e+01  5.5921861870833617e+01 -2.6789919115252356e+01 -3.1199000062689763e+01  1.4047452594830250e+02 -8.8783987837344128e+01 -1.1344668311879947e+02  4.4902854507977861e+02 7.7005213500688370e+01 -1.8470094368818124e+02  -1.0216237390570978e+01 -7.4870228835602092e+01 4.8891972492043976e+01  1.0430026534566480e+02 -1.1876891928128197e+01 -1.1879478887168080e+01  -5.5031926548581129e+00 7.0565517465503675e+01 -2.5574121978718104e+01  9.1354493197904731e+01 -3.1566552039041461e+01 5.6319466269294367e+01  6.9038947890800870e+01 -3.4202366745328945e+01 4.4412302019695829e+01  7.0132371501825489e+01 -8.2956769993077550e+00 6.3487774281824890e+01  5.5126988381534922e+01 -3.0057923898613158e+01 3.1814988003387178e+01  7.4085092907240281e+01 -2.3301994505461071e+01 5.1755286235451443e+01  2.7080412537003689e+01 2.0259625643687553e+01 -4.1890676506399895e+00  3.0824990785333650e+01 2.6086192844026861e+01 1.0783196313299136e+01  3.2290732758547485e+01 1.1609095129114786e+01 -1.5734727565489273e+00  1.7950973608346693e+01 3.0407298838190322e+01 -2.9949869533526796e-01  7.1037406475419516e+01 4.2611432370242156e+01 1.5199195932667452e+01  6.3028451013988068e+01 -1.0570524191732598e+01 2.9748124756141763e+01  5.8295683894411056e+01 -5.2186495884780602e+00 1.3812874247086114e+01  3.4931816620811724e+00 5.7286211010438368e+00 -5.8530841652352752e+00  9.1461288400113290e+00 -5.3393426289780361e+00 -3.4900304966740954e+01  6.4674088014374300e+00 -4.3909299501375210e-01 -1.4806375860246867e+01  2.4087487642206728e+01 -1.1478472577186405e+00 2.5058345764971381e+00  2.0773067283605265e+01 4.5233694095422067e+01 1.5669078915205807e+01  1.6506929996551760e+00 8.8303703308415802e+00 -4.8968914206373816e-02  1.0684658956936390e+01 2.2073451085021922e+01 4.1283634706873542e+00  1.3042474820241491e+01 6.1724374863390254e+00 1.0788254777164852e+01  1.8630138294516385e+02 -4.4258334366987562e+00 -2.1422429263298191e+01  1.7747342215155200e+02 -3.3806714113114481e+01 -6.4534065740764390e+01  2.4073695670097186e+02 -2.2075632544600001e+01 -1.8881326460092332e+01  1.5890617363717672e+02 -5.5126911855261355e+01 8.7498063289815011e+00  2.6962775688429450e+00 -6.4484493922126953e+00 2.1474169530974631e+01  7.8684136379939858e+01 -2.8170017766075691e+01 4.2793301427879506e+01  5.6354901850358992e+01 3.5611694263752987e+01 3.1855070594357013e+01  6.8093196211912485e+01 1.5739436382557001e+01 -1.3222696881082338e-01  8.3402217064295257e+01 -4.0783846992959852e+01 1.5789336286025208e+01  7.0945366876858486e+01 -4.3309315224232357e+01 1.4767118840129900e+01  8.2873693925029471e+01 -4.7970857967341466e+01 3.7588857679782031e+01  4.0778059684439569e+01 1.8858889955109277e+01 6.2561097038372004e+00  3.8763120156952098e+01 2.7776088564027710e+01 -1.6690559641419995e+01  2.2351929013901565e+01 1.6229606990371284e+01 -2.6731459320078943e+00  5.0063118270305417e+01 1.2328834587055614e+01 1.4616405420015184e+01  1.2343151023147631e+02 -1.7720066730038234e+01 3.9276131294451801e+01  4.5127657625963032e+01 -1.1039232643007151e+00 -1.1421060991446611e+01  -2.7459127956530804e+00 -2.7437142829895418e+00 -1.9857080069481583e+01  9.4347236267355168e+00 -6.3515230318966565e-01 -1.0570947788915115e+01  2.0362000900107855e+01 -2.8765176709143713e+01 -6.1134339033956927e+01  3.6955955910573032e+01 -2.1549425507870733e+01 1.0753607271270425e+01  4.8726357943949644e+01 -2.0546538434342601e+01 -3.2491630942868217e+00  1.4848995112271972e+01 1.8764443766279435e+01 6.4573777988339831e+00  3.3242015059388528e+01 2.8786685926864358e+01 1.2228120354574077e+01  4.9330472876447466e+01 9.2402501130237902e-01 4.6103660392281259e-01  9.3860445063705100e+01 -3.5146910376655256e+01 8.0946479066501347e+00  6.6174279716599159e+01 -2.6839143566712092e+01 -1.0259374157628373e+02  1.7003642845896391e+02 -6.3420945735518409e+01 1.1528275990938162e+01  2.0253430911631818e+02 -4.6798518082561010e+01 -5.7109105235307680e+01  9.5912883084278192e+01 -4.5726461688528374e+01 5.5247614268860303e+01  9.2441882373008738e+01 -3.3005496529162507e+01 5.4708534166146009e+01  4.3775954798015000e+01 9.7221247549609713e-01 -4.8900641117095809e+01  7.3794419668274074e+01 3.3547001236241577e+01 -1.8582050143692143e+01  1.0138913907897661e+02 -1.7564294385634085e+01 -5.7801190582731392e+00  6.4226544037760362e+01 -1.4428784137630965e+01 1.3463148157044640e+00  2.4516567542964356e+01 4.5406674226778279e+01 3.7306010944251402e+00  2.2542047656950722e+01 3.7323240280667342e+01 4.2343881896578228e+00  1.0414066825797359e+01 5.5105743962027205e+01 3.9257464280013032e-01  4.8240312775029750e+01 -2.6452685048011976e+01 -5.7577556308487011e+01  1.0987402540940202e+02 -5.6477288389749427e+00 1.3020049252811265e+02  8.3552292971022894e+01 -7.0264465326682156e+01 5.4721246923493922e+01  1.1027589990506068e+02 -4.0885686157416252e+01 5.3794890872211198e+01  5.6261911392375012e+01 2.4486830207567937e+01 5.1583642564252266e+01  5.1102839060414148e+01 3.4631639680790954e+01 5.6510966031236876e+01  3.4996693651610840e+01 3.1086526694100382e+01 3.8577720402284193e+01  2.5274653424116774e+01 2.8780703852023063e+01 4.9433924391225645e+01  1.7388439868840479e+01 6.4232991848365906e+00 4.8435506014036775e+01  3.8350271823592379e+01 -9.5490376064137283e+00 4.2311972581050732e+01  2.4063924891876137e+01 9.7684134514634540e+00 2.4797802314650188e+01  2.0647646913608369e+02 -2.6769053602135782e+00 -4.9898222459102975e+01  2.2634123484651752e+02 5.9071861981689608e+01 -4.3898272745125773e+01  2.3946006188802670e+02 5.6106142646978824e+01 6.0219229970395546e+01  1.4556651169129384e+02 -9.8527383629358489e+00 -4.1037757918615291e+01  -1.3158635726685004e+00 1.5526308740479717e+00 -6.8289212506464745e+00  -5.5406885613671930e+00 -5.5068291478502314e+00 -2.6950496361449723e+01  1.5290671498315167e+01 7.8645684619655345e+00 -1.0528690660937247e+01  1.4275820784145054e+01 7.5750556399661795e-01 -1.3735717800041543e+01  -3.4577931081935485e+00 4.9012947788090120e+00 -4.9975318321616085e+00  -8.2863066709836488e+00 1.4177090316715512e+01 -3.4551896640004611e+00  5.6442335716727046e+00 1.1950914378087516e+01 -8.1711040888923794e+00  1.0555427206854942e+02 6.8127135801928105e+01 -1.8043176031489683e+01  1.1998703442611678e+02 3.0901008221913884e+01 2.2350853145049406e+01  1.2091222652087214e+02 -7.6532315971676866e+01 -1.5546949527598443e+01  7.5387237394575877e+01 -7.9544465267295266e+01 8.1875252256065405e+00  8.2792568284776962e+01 -6.2806378062905218e+01 1.5056462069919052e+01  -6.3521785626720559e+00 4.5022066880250566e+00 -1.9952543379173026e+01  7.2540584022034054e+00 1.8063344503495088e+01 3.9093344317716006e+00  5.8371278114000809e+01 -9.9532756231957720e+00 3.4828704906208365e+00  2.8607673542936514e+01 4.0011259217256949e+01 6.8549195882210814e+00  7.2503597413459417e+01 -4.8407616147785525e+01 1.1745051293253074e+01  1.2401492710788959e+02 9.9966170069839979e+00 -1.0771461245201399e+02  1.0345858671032468e+02 -5.1705668286356721e+00 -1.2536958549369417e+02  1.6279003720765735e+02 -1.5483857108108106e+01 -1.1003894256054433e+02  1.5103224934801989e+02 -6.7565854274108661e+00 -1.4429976505584966e+02  8.9931549710256519e+01 -3.5298911990833837e+01 8.9772958845934685e+00  7.2050571525859397e+01 -2.4736767526576756e-01 -8.8784392818523532e+00  7.5390910402203531e+01 4.1218902435253542e+00 -1.2936482400824174e+01  1.1824268148973631e-01 6.1922441772487558e+00 -1.4100590978007117e+00  -5.7411346163193260e+00 4.1855856075265692e+00 -3.2383605731274718e+00  4.1127540186701410e+01 6.2142872232433159e+00 2.0965947575586643e+01  5.8407968014716246e+01 6.2265073975589393e+00 3.5959609871085942e+00  2.7428938890775640e+01 -2.0833534545176857e+01 -4.2866982260843002e+01  6.7689747679062506e+01 -1.4286650499348980e+01 -1.3188053333771489e+01  7.6298010596374894e+01 -2.1375607495651458e+01 -2.3794288979833258e+01  1.1721307387762248e+02 -3.0951400997306688e+01 1.3529612415508462e+01  9.8715581769119083e+01 -4.2274429435170539e+01 -9.3736265433749777e-01  1.0468216527457530e+02 -2.9173840086588985e+01 1.3602433494587645e+01  6.3579382768426640e+01 -6.3512175230816892e+00 -3.0441936833953566e+01  2.9705550671549236e+01 5.1314017982636244e+01 6.3791777516773696e+00  7.4263976914260354e+01 -5.1604005100908864e+01 1.9268687252787071e+01  1.8638385421703643e+02 -2.2340481289285063e+02 1.1322953667760589e+02  1.8221193291227050e+02 -1.1091784108875453e+02 1.8174198830328145e+01  3.7758029488893172e+01 -5.8420173491264336e+01 6.4521230425837444e+01  6.7431376985933525e+01 -1.0965964215042798e+00 -1.2506648674450293e+01  8.4570065546091328e+01 -3.3594694866179111e+01 -4.3922598026050643e+01  6.0905324275764720e+01 -1.5377143879792383e+01 -3.8600902266528756e+01  8.3207269630276954e+01 -2.8235554357037032e+01 -1.7492830943896461e+01  3.6622320808471351e+01 2.7220595733666574e+01 4.4333272264086911e+00  5.4233312237801236e+01 5.1124574196211530e+00 4.2294561853093047e+00  1.0741986888531559e+02 -1.1566117541812645e+01 2.2410568800457327e+01  9.3821880484397354e+01 -1.6997207229075013e+01 3.2794832864220282e+01  3.4161663111833400e+02 -2.6806064437780645e+01 -4.9383315455274534e+01  5.2244726340182631e+01 -3.5381719441807064e+01 -1.1730808231387032e+02  4.2754243232848111e+01 -5.0062098070758346e+01 2.1840594048766260e+01  6.5318469319288823e+01 -2.0851810543653638e+01 -4.4062819733368464e+01  8.0284874242955397e+01 -4.9194579714312070e+01 2.9780118212619664e+00  4.7372136373552991e+01 1.5724061868901329e+01 2.5247409637177768e+01  6.1969567990805892e+01 -1.3247313088006582e+01 4.4764133889762093e+01  7.6076951442731442e+01 8.5556879911735362e-01 -3.6261146995442793e+01  8.5906777533440657e+00 1.2051049406786975e+01 2.6862387581385960e+01  3.4805511786929536e+01 2.5554479144478719e+01 2.7343840460915885e+01  3.6205343321492151e+01 4.4607367340491164e+00 4.7