<?xml version="1.0"?>
<VTKFile type="UnstructuredGrid"  version="0.1"  >
<UnstructuredGrid>
<Piece  NumberOfPoints="3964" NumberOfCells="18978">
<Points>
<DataArray  type="Float64"  NumberOfComponents="3"  format="ascii">37.5 0 10  38.75 1.25 11.25  38.75 0 11.25  38.75 0 10  40 0 10  40 1.25 11.25  40 0 11.25  40 0 12.5  40 1.25 12.5  40 2.5 12.5  37.5 0 11.25  37.5 0 12.5  38.75 1.25 12.5  38.75 0 12.5  41.25 1.25 11.25  41.25 0 11.25  41.25 1.25 12.5  41.25 0 12.5  42.5 0 12.5  42.5 1.25 12.5  42.5 2.5 12.5  41.25 2.5 12.5  38.75 1.25 13.75  40 1.25 13.75  40 2.5 13.75  40 2.5 15  38.75 0 13.75  40 0 13.75  40 0 15  40 1.25 15  37.5 0 13.75  37.5 0 15  38.75 1.25 15  38.75 0 15  41.25 1.25 13.75  42.5 1.25 13.75  42.5 2.5 13.75  42.5 2.5 15  41.25 0 13.75  42.5 0 13.75  42.5 0 15  42.5 1.25 15  41.25 1.25 15  41.25 0 15  41.25 2.5 13.75  41.25 2.5 15  43.75 1.25 13.75  43.75 1.25 12.5  43.75 0 12.5  45 0 12.5  45 1.25 13.75  45 1.25 12.5  45 2.5 12.5  45 2.5 13.75  45 2.5 15  43.75 0 13.75  45 0 13.75  45 0 15  45 1.25 15  43.75 1.25 15  43.75 0 15  43.75 2.5 13.75  43.75 2.5 12.5  43.75 2.5 15  46.25 1.25 13.75  46.25 1.25 12.5  46.25 0 12.5  47.5 0 12.5  47.5 1.25 13.75  47.5 1.25 12.5  47.5 2.5 12.5  47.5 2.5 13.75  47.5 2.5 15  46.25 0 13.75  47.5 0 13.75  47.5 0 15  47.5 1.25 15  46.25 1.25 15  46.25 0 15  46.25 2.5 13.75  46.25 2.5 12.5  46.25 2.5 15  48.75 1.25 13.75  48.75 1.25 12.5  48.75 0 12.5  50 0 12.5  50 1.25 13.75  50 1.25 12.5  50 2.5 12.5  50 2.5 13.75  50 2.5 15  48.75 0 13.75  50 0 13.75  50 0 15  50 1.25 15  48.75 1.25 15  48.75 0 15  48.75 2.5 13.75  48.75 2.5 12.5  48.75 2.5 15  41.25 3.75 13.75  41.25 3.75 12.5  42.5 3.75 13.75  42.5 3.75 12.5  42.5 5 12.5  42.5 5 13.75  42.5 5 15  42.5 3.75 15  41.25 3.75 15  40 3.75 12.5  40 5 12.5  41.25 5 13.75  41.25 5 12.5  40 3.75 13.75  40 3.75 15  41.25 5 15  43.75 3.75 13.75  45 3.75 13.75  45 3.75 15  45 5 15  43.75 3.75 15  43.75 5 15  43.75 5 13.75  46.25 3.75 13.75  47.5 3.75 13.75  47.5 3.75 15  47.5 5 15  46.25 3.75 15  46.25 5 15  48.75 3.75 13.75  50 3.75 13.75  50 3.75 15  50 5 15  48.75 3.75 15  48.75 5 15  41.25 6.25 13.75  42.5 6.25 13.75  42.5 6.25 15  42.5 7.5 15  41.25 6.25 15  40 7.5 15  41.25 7.5 15  41.25 7.5 13.75  43.75 6.25 13.75  43.75 6.25 15  45 6.25 15  45 7.5 15  43.75 7.5 15  41.25 8.75 15  41.25 8.75 13.75  42.5 8.75 15  42.5 10 15  40 10 15  41.25 10 15  38.75 1.25 16.25  40 1.25 16.25  40 2.5 16.25  40 2.5 17.5  38.75 0 16.25  40 0 16.25  40 0 17.5  40 1.25 17.5  37.5 0 16.25  37.5 0 17.5  38.75 0 17.5  41.25 1.25 16.25  42.5 1.25 16.25  42.5 2.5 16.25  42.5 2.5 17.5  41.25 0 16.25  42.5 0 16.25  42.5 0 17.5  42.5 1.25 17.5  41.25 1.25 17.5  41.25 0 17.5  41.25 2.5 16.25  41.25 2.5 17.5  43.75 1.25 16.25  45 1.25 16.25  45 2.5 16.25  45 2.5 17.5  43.75 0 16.25  45 0 16.25  45 0 17.5  45 1.25 17.5  43.75 1.25 17.5  43.75 0 17.5  43.75 2.5 16.25  43.75 2.5 17.5  46.25 1.25 16.25  47.5 1.25 16.25  47.5 2.5 16.25  47.5 2.5 17.5  46.25 0 16.25  47.5 0 16.25  47.5 0 17.5  47.5 1.25 17.5  46.25 1.25 17.5  46.25 0 17.5  46.25 2.5 16.25  46.25 2.5 17.5  48.75 1.25 16.25  50 1.25 16.25  50 2.5 16.25  50 2.5 17.5  48.75 0 16.25  50 0 16.25  50 0 17.5  50 1.25 17.5  48.75 1.25 17.5  48.75 0 17.5  48.75 2.5 16.25  48.75 2.5 17.5  41.25 3.75 16.25  42.5 3.75 16.25  42.5 5 16.25  42.5 5 17.5  42.5 3.75 17.5  41.25 3.75 17.5  41.25 5 16.25  40 3.75 16.25  40 3.75 17.5  40 5 17.5  41.25 5 17.5  43.75 3.75 16.25  45 3.75 16.25  45 5 16.25  45 5 17.5  45 3.75 17.5  43.75 3.75 17.5  43.75 5 16.25  43.75 5 17.5  46.25 3.75 16.25  47.5 3.75 16.25  47.5 5 16.25  47.5 5 17.5  47.5 3.75 17.5  46.25 3.75 17.5  46.25 5 16.25  46.25 5 17.5  48.75 3.75 16.25  50 3.75 16.25  50 5 16.25  50 5 17.5  50 3.75 17.5  48.75 3.75 17.5  48.75 5 16.25  48.75 5 17.5  42.5 6.25 16.25  41.25 6.25 16.25  42.5 7.5 16.25  42.5 7.5 17.5  42.5 6.25 17.5  41.25 6.25 17.5  41.25 7.5 16.25  40 6.25 17.5  40 6.25 16.25  40 7.5 17.5  41.25 7.5 17.5  40 7.5 16.25  43.75 6.25 16.25  45 6.25 16.25  45 7.5 16.25  45 7.5 17.5  45 6.25 17.5  43.75 6.25 17.5  43.75 7.5 16.25  43.75 7.5 17.5  46.25 6.25 16.25  46.25 6.25 15  47.5 6.25 16.25  47.5 6.25 15  47.5 7.5 15  47.5 7.5 16.25  47.5 7.5 17.5  47.5 6.25 17.5  46.25 6.25 17.5  46.25 7.5 16.25  46.25 7.5 15  46.25 7.5 17.5  48.75 6.25 16.25  48.75 6.25 15  50 6.25 16.25  50 6.25 15  50 7.5 15  50 7.5 16.25  50 7.5 17.5  50 6.25 17.5  48.75 6.25 17.5  48.75 7.5 16.25  48.75 7.5 15  48.75 7.5 17.5  41.25 8.75 16.25  42.5 8.75 16.25  42.5 10 16.25  42.5 10 17.5  42.5 8.75 17.5  41.25 8.75 17.5  41.25 10 16.25  40 10 17.5  41.25 10 17.5  40 10 16.25  43.75 8.75 16.25  43.75 8.75 15  45 8.75 16.25  45 8.75 15  45 10 15  45 10 16.25  45 10 17.5  45 8.75 17.5  43.75 8.75 17.5  43.75 10 16.25  43.75 10 15  43.75 10 17.5  46.25 8.75 16.25  47.5 8.75 16.25  47.5 8.75 17.5  47.5 10 17.5  46.25 8.75 17.5  46.25 10 17.5  46.25 10 16.25  48.75 8.75 16.25  50 8.75 16.25  50 8.75 17.5  50 10 17.5  48.75 8.75 17.5  48.75 10 17.5  40 11.25 16.25  40 11.25 15  38.75 11.25 16.25  38.75 11.25 15  40 12.5 15  40 12.5 16.25  40 12.5 17.5  40 11.25 17.5  38.75 12.5 16.25  41.25 11.25 16.25  41.25 11.25 15  42.5 11.25 16.25  42.5 11.25 15  42.5 12.5 15  42.5 12.5 16.25  42.5 12.5 17.5  42.5 11.25 17.5  41.25 11.25 17.5  41.25 12.5 16.25  41.25 12.5 15  41.25 12.5 17.5  43.75 11.25 16.25  45 11.25 16.25  45 11.25 17.5  45 12.5 17.5  43.75 11.25 17.5  43.75 12.5 17.5  43.75 12.5 16.25  46.25 11.25 16.25  46.25 11.25 17.5  47.5 11.25 17.5  47.5 12.5 17.5  46.25 12.5 17.5  40 13.75 16.25  38.75 13.75 16.25  40 13.75 17.5  40 15 17.5  38.75 13.75 17.5  38.75 15 17.5  41.25 13.75 16.25  42.5 13.75 16.25  42.5 13.75 17.5  42.5 15 17.5  41.25 13.75 17.5  41.25 15 17.5  43.75 13.75 16.25  43.75 13.75 17.5  45 13.75 17.5  45 15 17.5  43.75 15 17.5  41.25 1.25 18.75  42.5 1.25 18.75  42.5 2.5 18.75  42.5 2.5 20  41.25 0 18.75  42.5 0 18.75  42.5 0 20  42.5 1.25 20  40 0 18.75  40 0 20  41.25 1.25 20  41.25 0 20  41.25 2.5 18.75  40 1.25 20  40 2.5 20  41.25 2.5 20  40 2.5 18.75  43.75 1.25 18.75  45 1.25 18.75  45 2.5 18.75  45 2.5 20  43.75 0 18.75  45 0 18.75  45 0 20  45 1.25 20  43.75 1.25 20  43.75 0 20  43.75 2.5 18.75  43.75 2.5 20  46.25 1.25 18.75  47.5 1.25 18.75  47.5 2.5 18.75  47.5 2.5 20  46.25 0 18.75  47.5 0 18.75  47.5 0 20  47.5 1.25 20  46.25 1.25 20  46.25 0 20  46.25 2.5 18.75  46.25 2.5 20  48.75 1.25 18.75  50 1.25 18.75  50 2.5 18.75  50 2.5 20  48.75 0 18.75  50 0 18.75  50 0 20  50 1.25 20  48.75 1.25 20  48.75 0 20  48.75 2.5 18.75  48.75 2.5 20  40 3.75 18.75  38.75 3.75 18.75  40 5 18.75  40 5 20  40 3.75 20  38.75 3.75 20  41.25 3.75 18.75  42.5 3.75 18.75  42.5 5 18.75  42.5 5 20  42.5 3.75 20  41.25 3.75 20  41.25 5 18.75  41.25 5 20  43.75 3.75 18.75  45 3.75 18.75  45 5 18.75  45 5 20  45 3.75 20  43.75 3.75 20  43.75 5 18.75  43.75 5 20  46.25 3.75 18.75  47.5 3.75 18.75  47.5 5 18.75  47.5 5 20  47.5 3.75 20  46.25 3.75 20  46.25 5 18.75  46.25 5 20  48.75 3.75 18.75  50 3.75 18.75  50 5 18.75  50 5 20  50 3.75 20  48.75 3.75 20  48.75 5 18.75  48.75 5 20  41.25 6.25 18.75  42.5 6.25 18.75  42.5 7.5 18.75  42.5 7.5 20  42.5 6.25 20  41.25 6.25 20  41.25 7.5 18.75  40 6.25 18.75  40 6.25 20  40 7.5 20  41.25 7.5 20  40 7.5 18.75  43.75 6.25 18.75  45 6.25 18.75  45 7.5 18.75  45 7.5 20  45 6.25 20  43.75 6.25 20  43.75 7.5 18.75  43.75 7.5 20  46.25 6.25 18.75  47.5 6.25 18.75  47.5 7.5 18.75  47.5 7.5 20  47.5 6.25 20  46.25 6.25 20  46.25 7.5 18.75  46.25 7.5 20  48.75 6.25 18.75  50 6.25 18.75  50 7.5 18.75  50 7.5 20  50 6.25 20  48.75 6.25 20  48.75 7.5 18.75  48.75 7.5 20  41.25 8.75 18.75  42.5 8.75 18.75  42.5 10 18.75  42.5 10 20  42.5 8.75 20  41.25 8.75 20  41.25 10 18.75  40 10 20  41.25 10 20  40 10 18.75  43.75 8.75 18.75  45 8.75 18.75  45 10 18.75  45 10 20  45 8.75 20  43.75 8.75 20  43.75 10 18.75  43.75 10 20  46.25 8.75 18.75  47.5 8.75 18.75  47.5 10 18.75  47.5 10 20  47.5 8.75 20  46.25 8.75 20  46.25 10 18.75  46.25 10 20  48.75 8.75 18.75  50 8.75 18.75  50 10 18.75  50 10 20  50 8.75 20  48.75 8.75 20  48.75 10 18.75  48.75 10 20  40 11.25 18.75  38.75 11.25 18.75  40 12.5 18.75  40 12.5 20  40 11.25 20  38.75 12.5 18.75  41.25 11.25 18.75  42.5 11.25 18.75  42.5 12.5 18.75  42.5 12.5 20  42.5 11.25 20  41.25 11.25 20  41.25 12.5 18.75  41.25 12.5 20  43.75 11.25 18.75  45 11.25 18.75  45 12.5 18.75  45 12.5 20  45 11.25 20  43.75 11.25 20  43.75 12.5 18.75  43.75 12.5 20  46.25 11.25 18.75  47.5 11.25 18.75  47.5 12.5 18.75  47.5 12.5 20  47.5 11.25 20  46.25 11.25 20  46.25 12.5 18.75  46.25 12.5 20  48.75 11.25 18.75  48.75 11.25 17.5  50 11.25 18.75  50 11.25 17.5  50 12.5 17.5  50 12.5 18.75  50 12.5 20  50 11.25 20  48.75 11.25 20  48.75 12.5 18.75  48.75 12.5 17.5  48.75 12.5 20  40 13.75 18.75  38.75 13.75 18.75  40 15 18.75  40 15 20  40 13.75 20  38.75 13.75 20  41.25 13.75 18.75  42.5 13.75 18.75  42.5 15 18.75  42.5 15 20  42.5 13.75 20  41.25 13.75 20  41.25 15 18.75  41.25 15 20  43.75 13.75 18.75  45 13.75 18.75  45 15 18.75  45 15 20  45 13.75 20  43.75 13.75 20  43.75 15 18.75  43.75 15 20  46.25 13.75 18.75  46.25 13.75 17.5  47.5 13.75 18.75  47.5 13.75 17.5  47.5 15 17.5  47.5 15 18.75  47.5 15 20  47.5 13.75 20  46.25 13.75 20  46.25 15 18.75  46.25 15 17.5  46.25 15 20  48.75 13.75 18.75  48.75 13.75 17.5  50 13.75 18.75  50 13.75 17.5  50 15 17.5  50 15 18.75  50 15 20  50 13.75 20  48.75 13.75 20  48.75 15 18.75  48.75 15 17.5  48.75 15 20  40 16.25 18.75  38.75 16.25 18.75  40 16.25 20  40 17.5 20  38.75 16.25 20  41.25 16.25 18.75  42.5 16.25 18.75  42.5 16.25 20  42.5 17.5 20  41.25 16.25 20  41.25 17.5 20  43.75 16.25 18.75  45 16.25 18.75  45 16.25 20  45 17.5 20  43.75 16.25 20  43.75 17.5 20  46.25 16.25 18.75  47.5 16.25 18.75  47.5 16.25 20  47.5 17.5 20  46.25 16.25 20  46.25 17.5 20  48.75 16.25 18.75  50 16.25 18.75  50 16.25 20  50 17.5 20  48.75 16.25 20  48.75 17.5 20  40 18.75 20  38.75 18.75 20  38.75 18.75 18.75  40 20 20  40 1.25 21.25  38.75 1.25 21
[...]
<PointData  Scalars="c_HbCO2"> 
<DataArray  type="Float64"  Name="c_HbCO2"  format="ascii">1.7011981428615494e-36  -5.5035077291322689e-37  -3.2571499797245727e-37  -3.1777223197750697e-38  1.7804264442758386e-37  1.0280226298554001e-38  1.0537129095177686e-37  1.7804264403438192e-37  1.0537124501757319e-37  1.7804277974612966e-37  1.0068238612333365e-36  1.7011982619966246e-36  -3.2571501053277187e-37  -3.1777479882001454e-38  -5.7598155694800599e-38  -3.4088407815605688e-38  -3.4088414680482871e-38  -3.3257585351145249e-39  1.8633455921767928e-38  1.1027870476708889e-38  1.8633459100901962e-38  -3.3257887245675577e-39  -5.5035075989611671e-37  1.0280180195847777e-38  1.0537125986929472e-37  1.7804265918837057e-37  -3.2571518687638253e-37  1.0537130127760510e-37  1.7804263883732491e-37  1.0537127993287161e-37  1.0068236740929871e-36  1.7011983508380400e-36  -3.2571519715423361e-37  -3.1777548347669360e-38  -5.7598156602540986e-38  1.0759146173574182e-39  1.1027865581383682e-38  1.8633448210339807e-38  -3.4088408809570165e-38  1.1027869093936606e-38  1.8633450662336241e-38  1.1027868176627521e-38  -3.4088396467120763e-38  -3.3257618179917626e-39  -3.4088530086856512e-38  -3.3257483435329760e-39  -6.0281289510190381e-39  -3.5676353965531053e-39  -3.4807155993530365e-40  1.9503510809461777e-39  1.1261797597086148e-40  1.1542799898972139e-39  1.9503500483893487e-39  1.1542803356263185e-39  1.9503509389163200e-39  -3.5676343104105753e-39  1.1542776911430627e-39  1.9503517861112771e-39  1.1542799593552232e-39  -3.5676321872761059e-39  -3.4807130095424124e-40  -3.5676378798839428e-39  -3.4807575862619000e-40  -3.4807048552481702e-40  -6.3159944554874256e-40  -3.7379939760727804e-40  -3.6469707440864078e-41  2.0632804381634622e-40  1.1913674529242625e-41  1.2211175641327104e-40  2.0632773344591540e-40  1.2211188984078931e-40  2.0632813809038354e-40  -3.7380134886291827e-40  1.2211133986712909e-40  2.0632834210248972e-40  1.2211198798884049e-40  -3.7380178683077722e-40  -3.6469625412536018e-41  -3.7380054421997398e-40  -3.6467781555404978e-41  -3.6468566362063953e-41  -7.2935253694013384e-41  -4.3165130202029320e-41  -4.2111302679951197e-42  4.2719208776157596e-41  2.4665253250367235e-42  2.5282684461388423e-41  4.2719240906933102e-41  2.5282639940234914e-41  4.2719315636536091e-41  -4.3165522971651266e-41  2.5282698650042228e-41  4.2719304628853282e-41  2.5282732936827362e-41  -4.3165408426639949e-41  -4.2111837013672337e-42  -4.3165397661994007e-41  -4.2110163024867496e-42  -4.2111698606026843e-42  -5.7598077650096079e-38  -3.4088442301572530e-38  1.0758683176996764e-39  1.1027854921171841e-38  1.8633442061532892e-38  1.1027851625675720e-38  1.8633472082682060e-38  1.1027851449796320e-38  -3.4088493032873652e-38  1.0537119845630774e-37  1.7804263251370395e-37  -3.4088486504592440e-38  -3.3257571244591341e-39  1.0280242258785786e-38  1.0537129712777830e-37  -3.3257599400306219e-39  -6.0281217786752218e-39  1.1261807916208875e-40  1.1542810476552339e-39  1.9503522860153611e-39  -3.5676354363044503e-39  -3.4807646749626435e-40  -3.5676363460841461e-39  -6.3159962566371942e-40  1.1913626308512206e-41  1.2211168255762820e-40  2.0632852242012609e-40  -3.7380021392537050e-40  -3.6469757006581057e-41  -7.2935291344846653e-41  2.4664267485821499e-42  2.5282726759632033e-41  4.2719456799420621e-41  -4.3165475589624847e-41  -4.2112869415260603e-42  -5.7598087374436492e-38  1.0759098638478461e-39  1.1027858720524905e-38  1.8633441540906586e-38  -3.4088392375959583e-38  1.7804254111365372e-37  -3.3257443084617917e-39  -3.4088368729690949e-38  -6.0281238589108747e-39  -3.5676385345698341e-39  1.1542811160913970e-39  1.9503519830859550e-39  -3.4806853861004305e-40  -3.4088377969915557e-38  -5.7598124044215637e-38  1.1027872306939189e-38  1.8633434326504429e-38  1.7804249558508868e-37  -3.3257569648123825e-39  -5.5035050213901887e-37  1.0280249222718785e-38  1.0537132477396164e-37  1.7804258056684200e-37  -3.2571515357983094e-37  1.0537130500834171e-37  1.7804256899724084e-37  1.0537124188898460e-37  1.0068237986907699e-36  1.7011986887551778e-36  -3.1777463540767468e-38  -5.7598143550375708e-38  1.0759190892916838e-39  1.1027864772050973e-38  1.8633452477000739e-38  -3.4088403604428583e-38  1.1027871858164807e-38  1.8633450501967249e-38  1.1027870498382778e-38  -3.4088386321774450e-38  -3.3257281487694072e-39  -3.4088433713389509e-38  -3.3257830006838209e-39  -6.0281280115778289e-39  1.1261693817452631e-40  1.1542799069375952e-39  1.9503524472707663e-39  -3.5676376184587626e-39  1.1542789921035895e-39  1.9503523016205308e-39  1.1542810126984593e-39  -3.5676374214916550e-39  -3.4806829686486676e-40  -3.5676343080174642e-39  -3.4807124925837148e-40  -6.3159972138722347e-40  1.1913664217274350e-41  1.2211181474239139e-40  2.0632845276495441e-40  -3.7380111378257569e-40  1.2211150147461906e-40  2.0632847344714709e-40  1.2211188953457686e-40  -3.7380078273419017e-40  -3.6469556055168680e-41  -3.7380055439218196e-40  -3.6469227295827694e-41  -7.2935444516277044e-41  2.4666026278019450e-42  2.5282759672695194e-41  4.2719393688408066e-41  -4.3165595473136939e-41  2.5282746392490515e-41  4.2719384294094689e-41  2.5282700899807109e-41  -4.3165437869215826e-41  -4.2112876372523735e-42  -4.3165502546316696e-41  -4.2112633110454466e-42  -5.7598110526591850e-38  1.0758938320164232e-39  1.1027860179542629e-38  1.8633451605472855e-38  1.1027864487249849e-38  -3.4088460063922706e-38  -3.4088388622241600e-38  1.0280260048900195e-38  1.0537134938102073e-37  1.7804251500910310e-37  -3.3257503621989078e-39  -6.0281253430699364e-39  1.1261687359392241e-40  1.1542804990005146e-39  1.9503537405356041e-39  1.1542811463076937e-39  -3.5676380269931396e-39  -3.5676371222503374e-39  -3.4807032114956806e-40  -6.3160025770116426e-40  1.1913806632408216e-41  1.2211207333303217e-40  2.0632867854745024e-40  1.2211188075447792e-40  -3.7380032625981547e-40  -3.7380192920242916e-40  -3.6469168765327468e-41  -7.2935475438146238e-41  2.4664537145835754e-42  2.5282772602219301e-41  4.2719498380996562e-41  2.5282684053312342e-41  -4.3165549387572103e-41  -4.3165822857672221e-41  -4.2112552867472702e-42  1.0759163190897269e-39  -5.7598155988008964e-38  1.1027871726287086e-38  1.8633459709817112e-38  1.1027872920116398e-38  -3.4088438978230032e-38  -3.4088418250888854e-38  1.0537137967649868e-37  1.0280297579454946e-38  1.7804255674347200e-37  -3.3257967770447264e-39  1.0537132333097208e-37  -6.0281281780343498e-39  1.1261609979748204e-40  1.1542818499211418e-39  1.9503550953599827e-39  1.1542818871704367e-39  -3.5676428759565628e-39  -3.5676371943200381e-39  -3.4807231509584038e-40  -6.3160096692393164e-40  -3.7380122576022044e-40  1.1913464882429169e-41  1.2211206901727391e-40  2.0632895344903593e-40  1.2211200956138260e-40  2.0632908513514867e-40  1.2211198251122351e-40  -3.7380165576459284e-40  -3.7380164312452319e-40  -3.6469144091160572e-41  -3.6469746387674986e-41  -7.2935646614581833e-41  -4.3165609111331893e-41  2.4665437144941757e-42  2.5282844640892157e-41  4.2719637930410492e-41  2.5282876403823944e-41  4.2719633095059417e-41  2.5282784134346249e-41  -4.3165680704805172e-41  -4.3165800402581032e-41  -4.2112020350705132e-42  -4.2113165054329541e-42  -5.7598120124617674e-38  1.0759041909396916e-39  1.1027867900908948e-38  1.8633443697910203e-38  1.1027865803204458e-38  -3.4088385606520491e-38  -3.4088388965168958e-38  1.7804247248335507e-37  -3.3257304932231007e-39  1.0537125206745632e-37  -6.0281279879119864e-39  -3.5676407354303972e-39  1.1261620151827641e-40  1.1542799836461968e-39  1.9503532348688339e-39  1.1542826795658521e-39  1.9503543808495915e-39  1.1542817898027853e-39  -3.5676399377935634e-39  -3.5676379721021035e-39  -3.4807284704131756e-40  -3.4806642952036656e-40  -6.3160156846028895e-40  1.1913630730546785e-41  1.2211237856976225e-40  2.0632940979903303e-40  -3.7380232024921194e-40  -3.6469410018381132e-41  -3.7380218397007470e-40  -7.2935875159826799e-41  2.4665578519463887e-42  2.5282864534988445e-41  4.2719769864105897e-41  -4.3165873525672042e-41  -4.2114000107945921e-42  1.0280240983566343e-38  1.0537110023876931e-37  -5.5035037404315923e-37  -3.2571496545460094e-37  1.7804242360189780e-37  1.0537121306060975e-37  1.7804250082443419e-37  1.0537126478830485e-37  -3.2571488547947102e-37  -5.7598095769818289e-38  -3.4088377362643651e-38  1.0759048857341881e-39  1.1027846098463901e-38  1.8633426830335584e-38  1.1027874480779276e-38  1.8633442095661072e-38  1.1027868859896641e-38  -3.4088427366358098e-38  -3.4088388334950208e-38  -3.3257480973670310e-39  -3.3257505434306162e-39  -6.0281270569428136e-39  1.1261421984802751e-40  1.1542817890346919e-39  1.9503539320723075e-39  -3.5676402701217134e-39  -3.4806640983741663e-40  -3.5676354858187608e-39  -6.3160230922465154e-40  -3.7380203987893195e-40  1.2211239077851580e-40  2.0632935138424307e-40  -3.6468581968195200e-41  1.0280201261165893e-38  -5.5035025558956557e-37  1.0537116553577289e-37  1.7804251064040472e-37  -3.2571497156432211e-37  -3.1777533468692945e-38  -5.7598080333561725e-38  1.0759050363230872e-39  1.1027864824051715e-38  1.8633440147221703e-38  -3.4088397089403333e-38  -3.3257283229311681e-39  -6.0281271236624453e-39  -3.5676367125255798e-39  1.1542827130576797e-39  1.9503526617615454e-39  -3.4806302632903815e-40  -5.7598141411435183e-38  1.0759167598831649e-39  1.1027872082847398e-38  1.8633442784985860e-38  -3.4088390270955377e-38  1.1027874514427906e-38  1.8633439862659432e-38  1.1027860802708616e-38  1.0537129231549722e-37  1.7804259076456374e-37  -3.4088386387915239e-38  -3.3257722971190382e-39  -3.4088368648354783e-38  1.0537122970361978e-37  1.7804259927775975e-37  -3.3257593172480731e-39  1.0537121658348605e-37  -6.0281276061608737e-39  1.1261619141194574e-40  1.1542809277622788e-39  1.9503514176226330e-39  -3.5676367407062503e-39  1.1542800932746532e-39  1.9503503132204361e-39  1.1542796030315200e-39  -3.5676320411104519e-39  -3.4806603881167665e-40  -3.5676367357378568e-39  -3.4807107532184270e-40  -6.3160011297054305e-40  1.1913713663285554e-41  1.2211194253576407e-40  2.0632850026758190e-40  -3.7380137554200341e-40  1.2211170259641958e-40  2.0632836658385120e-40  1.2211180288150408e-40  -3.7380172245229259e-40  -3.6469122397302063e-41  -3.7380106765825454e-40  -3.6469798552067674e-41  -7.2935503761613246e-41  2.4666453613444186e-42  2.5282768935962309e-41  4.2719390354954030e-41  -4.3165589410516509e-41  2.5282747071114130e-41  4.2719339742936928e-41  2.5282725802473533e-41  -4.3165532401607629e-41  -4.2113163948318262e-42  -4.3165555559584637e-41  -4.2113919256666067e-42  1.0280258347351465e-38  -5.5035069336000173e-37  1.0537147287675030e-37  1.7804245714219198e-37  1.0537133783703402e-37  -3.2571520429153647e-37  -5.7598132322552839e-38  1.0759191264330212e-39  1.1027879398549174e-38  1.8633439726867768e-38  1.1027869079971289e-38  -3.4088386845734840e-38  -3.4088401272504522e-38  -3.3256781606466159e-39  -6.0281305651102664e-39  1.1261721228157382e-40  1.1542823103404936e-39  1.9503521179056784e-39  1.1542800262610318e-39  -3.5676344237714885e-39  -3.5676387173823667e-39  -3.4806557697196835e-40  -6.3160042583830512e-40  1.1913881340782205e-41  1.2211227475120370e-40  2.0632877830354075e-40  1.2211175128510613e-40  -3.7380123574305544e-40  -3.7380154180651117e-40  -3.6469722905288357e-41  -7.2935535091573463e-41  2.4665104195319504e-42  2.5282793106281740e-41  4.2719555604434318e-41  2.5282718614162588e-41  -4.3165696287873781e-41  -4.3165800061964202e-41  -4.2114243901114850e-42  -5.7598139317598210e-38  1.0759118741260746e-39  1.1027877174688411e-38  1.8633441286611305e-38  1.1027869211583674e-38  -3.4088393093989841e-38  -3.4088430964904576e-38  1.0280142318115325e-38  1.0537136788467109e-37  1.7804250703732115e-37  -3.3257606557826778e-39  1.0537127728928491e-37  -6.0281316542398616e-39  1.1261628239205196e-40  1.1542822837642319e-39  1.9503532515334611e-39  1.1542806395885594e-39  -3.5676372888150073e-39  -3.5676415359350520e-39  -3.4807106234623325e-40  -6.3160103108124002e-40  1.1913788904332808e-41  1.2211225616843801e-40  2.0632916451923532e-40  1.2211192814308373e-40  -3.7380216734537919e-40  -3.7380226393189130e-40  -3.6469873975233188e-41  -7.2935685805745450e-41  2.4665517931685241e-42  2.5282869916407861e-41  4.2719738356003043e-41  2.5282812848426057e-41  -4.3165931921468109e-41  -4.3165857804469257e-41  -4.2114508679492608e-42  -5.7598093166613335e-38  1.0759122001503232e-39  1.1027871537068282e-38  1.8633416570092677e-38  1.1027855138970425e-38  -3.4088377391079790e-38  -3.4088357421362137e-38  1.7804238628190374e-37  -3.3257325606858420e-39  1.0537122423750868e-37  -6.0281280692998383e-39  1.1261476522720937e-40  1.1542822898497821e-39  1.9503510731202639e-39  1.1542800874364287e-39  -3.5676368514784350e-39  -3.5676351920458068e-39  -3.4806252285821410e-40  -6.3160137133667125e-40  1.1913495187807316e-41  1.2211230220969699e-40  2.0632927059078482e-40  1.2211198629639666e-40  -3.7380254264375301e-40  -3.7380224314717242e-40  -3.6468976371443728e-41  -7.2935865008017326e-41  2.4665678871349097e-42  2.5282895731306976e-41  4.2719884087125773e-41  2.5282882963122878e-41  -4.3166185075988504e-41  -4.3165944165348877e-41  -4.2114533482720194e-42  1.0280255251199107e-38  -5.5035031033376363e-37  1.0537117167005843e-37  1.7804236431185335e-37  1.0537112689092947e-37  -3.2571470879886412e-37  -5.7598088032007199e-38  1.0759054031934695e-39  1.1027868078995021e-38  1.8633423066653894e-38  1.1027859801361547e-38  -3.4088336744726918e-38  -3.4088376415381577e-38  -3.3257276162471830e-39  -6.0281271743030768e-39  1.1261594818827699e-40  1.1542829007635993e-39  1.9503502157294996e-39  1.1542814222975431e-39  -3.5676258919047141e-39  -3.5676358916942700e-39  -3.4806042415528689e-40  -6.3160157897088487e-40  1.1913544415183909e-41  1.2211226798371217e-40  2.0632902852115967e-40  1.2211241186834321e-40  -3.7380163107003460e-40  -3.7380163074876899e-40  -3.6468054490836254e-41  -7.2935935644148254e-41  -4.3165829511129504e-41  2.4665851892431291e-42  2.5282921017890228e-41  4.2719735383459830e-41  2.5282864895769476e-41  4.2719793148036381e-41  2.5283022117320802e-41  -4.3166144696959385e-41  -4.3165816260955433e-41  -4.2113304976801087e-42  -4.2112554244508393e-42  1.0280212012551764e-38  -5.5035027027067565e-37  1.0537120049791084e-37  1.7804263021842485e-37  1.0537109316014214e-37  -3.2571470726468297e-37  -5.7598096397755145e-38  1.0759025836681900e-39  1.1027879617096461e-38  1.8633442409555498e-38  1.1027850026069360e-38  -3.4088385392347798e-38  -3.4088439138266318e-38  -3.3257982227959041e-39  -6.0281269579132635e-39  1.1261606218730933e-40  1.1542829746843940e-39  1.9503524389133730e-39  1.1542805248132568e-39  -3.5676325524409179e-39  -3.5676403257024115e-39  -3.4807194395238081e-40  -6.3160135549914809e-40  -3.7380106530350584e-40  1.1913799876270955e-41  1.2211234540587992e-40  2.0632899095692892e-40  1.2211222940101842e-40  2.0632892124041179e-40  1.2211230019821137e-40  -3.7380069218915159e-40  -3.7380122597556234e-40  -3.6468029032621563e-41  -3.6468683585483995e-41  -7.2935857310267613e-41  -4.3165641039249769e-41  2.4666552637882422e-42  2.5282830919006441e-41  4.2719599522833693e-41  2.5282901806228424e-41  4.2719625689026448e-41  2.5282971353553085e-41  -4.3165752695150710e-41  -4.3165621541682932e-41  -4.2112103662510001e-42  -4.2111398442984632e-42  1.0280312331006489e-38  -5.5035056716742519e-37  1.0537126785004359e-37  1.7804262572879460e-37  -3.2571512950678026e-37  -5.7598130653160288e-38  1.0759037787166380e-39  1.1027855923057746e-38  1.8633449867773185e-38  -3.4088434031599777e-38  -3.3257832920177629e-39  -6.0281268865784641e-39  1.1261539372332002e-40  1.1542813246419893e-39  1.9503545760396815e-39  -3.5676411780813452e-39  -3.4807750716754651e-40  -6.3160129182227235e-40  1.1913774008315943e-41  1.2211221951225376e-40  2.0632945994253358e-40  -3.7380157154034752e-40  -3.6469164775934574e-41  -7.2935869567419683e-41  2.4666419418307419e-42  2.5282881269048954e-41  4.2719858040398935e-41  -4.3165663518128002e-41  -4.2110760891354293e-42  1.0537129359265626e-37  -3.2571496012540566e-37  -5.5035047571556998e-37  1.7804236417002938e-37  1.0280426690265459e-38  -5.5035076093418938e-37  1.0537130935533304e-37  1.7804245453818547e-37  1.7011987417963742e-36  -3.2571480916270450e-37  -3.1777475200707190e-38  1.0537119320841402e-37  1.7804232003558659e-37  1.0537087605057919e-37  1.0068238276454559e-36  1.7011982652045607e-36  -3.2571433546671213e-37  -3.1778206734706204e-38  -5.7598080514876769e-38  1.0759277486913863e-39  1.1027856686467951e-38  1.8633382166806448e-38  -3.4088336456831984e-38  1.1027856308174270e-38  1.8633396716346435e-38  1.1027833644666921e-38  -3.4088278465567551e-38  -3.3258539484495120e-39  -3.4088360353174147e-38  -3.3257769389236440e-39  -6.0281183151468666e-39  1.1261798833110445e-40  1.1542769583905596e-39  1.9503383379221882e-39  -3.5676281935590054e-39  1.1542772496329314e-39  1.9503400606160552e-39  1.1542736054848338e-39  -3.5676086580379950e-39  -3.4806687627332289e-40  -3.5676280449786794e-39  -3.4806693630137545e-40  -6.3159843157565255e-40  1.1913789489458287e-41  1.2211145999594823e-40  2.0632647488666632e-40  -3.7380004137671191e-40  1.2211126999483249e-40  2.0632626651965396e-40  1.2211041599123566e-40  -3.7379640136413822e-40  -3.6468871190481059e-41  -3.7379965470183264e-40  -3.6469154596660528e-41  -7.2935221796319572e-41  2.4665907365008917e-42  2.5282659597898398e-41  4.2719230261008763e-41  -4.3165431121134287e-41  2.5282647831868781e-41  4.2718999999000823e-41  2.5282487979638047e-41  -4.3164930251754394e-41  -4.2109099179001014e-42  -4.3165383982726548e-41  -4.2110885888868394e-42  1.0280349206375331e-38  -5.5035060530054519e-37  1.0537129515664500e-37  1.7804243363433511e-37  1.0537101814404823e-37  -3.2571488153151741e-37  -5.7598074694589864e-38  1.0759231073360825e-39  1.1027860477558335e-38  1.8633386878966785e-38  1.1027823184670052e-38  -3.4088367012857467e-38  -3.4088373557845594e-38  -3.3257979409840994e-39  -6.0281167501918321e-39  1.1261594138372606e-40  1.1542778269109302e-39  1.9503401411596521e-39  1.1542749203608777e-39  -3.5676143597978265e-39  -3.5676306277405208e-39  -3.4807098569625888e-40  -6.3159868494446458e-40  1.1913705147959783e-41  1.2211203529556690e-40  2.0632697167592603e-40  1.2211083518770740e-40  -3.7379695856673423e-40  -3.7380073709186258e-40  -3.6468817149537590e-41  -7.2935354595744051e-41  2.4665301035559693e-42  2.5282761715866428e-41  4.2719464125228300e-41  2.5282668636401094e-41  -4.3165246658135369e-41  -4.3165709903128910e-41  -4.2109224675044667e-42  1.0280215265505945e-38  -5.5035044995672750e-37  1.0537129555482239e-37  1.7804252347563424e-37  1.0537117478054635e-37  -3.2571544605590499e-37  -5.7598088604336861e-38  1.0759088461475764e-39  1.1027856217541146e-38  1.8633373292893630e-38  1.1027845452187975e-38  -3.4088376057843107e-38  -3.4088481564642849e-38  -3.3258438427922576e-39  -6.0281179438729184e-39  1.1261531605908124e-40  1.1542788371787745e-39  1.9503374210386740e-39  1.1542738431722618e-39  -3.5676080809027985e-39  -3.5676369700223982e-39  -3.4806572031742158e-40  -6.3159911137296131e-40  1.1913468660288987e-41  1.2211189433101534e-40  2.0632760874345508e-40  1.2211066160820325e-40  -3.7379781059084764e-40  -3.7380107568283506e-40  -3.6468214360873759e-41  -7.2935567966757507e-41  2.4664843056419238e-42  2.5282931436894188e-41  4.2719840418996275e-41  2.5282723641339492e-41  -4.3165611156878465e-41  -4.3165820679154213e-41  -4.2111648193015937e-42  -5.7598023868602575e-38  1.0758799549279003e-39  1.1027840435516718e-38  1.8633346835805168e-38  1.1027795821453861e-38  -3.4088227852798167e-38  -3.4088284726788969e-38  1.7804203023754723e-37  -3.3255551688765331e-39  1.0537128404151386e-37  -6.0281098838598296e-39  1.1261241212956838e-40  1.1542802352144919e-39  1.9503399434384272e-39  1.1542707396690362e-39  -3.5675998979626649e-39  -3.5676231050322