<?xml version="1.0"?>
<VTKFile type="UnstructuredGrid"  version="0.1"  >
<UnstructuredGrid>
<Piece  NumberOfPoints="3924" NumberOfCells="19102">
<Points>
<DataArray  type="Float64"  NumberOfComponents="3"  format="ascii">0 0 25  1.25 1.25 26.25  1.25 1.25 25  1.25 0 25  2.5 0 25  2.5 1.25 26.25  2.5 1.25 25  2.5 2.5 25  2.5 2.5 26.25  2.5 2.5 27.5  1.25 0 26.25  2.5 0 26.25  2.5 0 27.5  0 0 26.25  0 0 27.5  0 1.25 25  0 2.5 25  1.25 2.5 26.25  1.25 2.5 25  0 1.25 26.25  0 2.5 26.25  0 2.5 27.5  3.75 1.25 26.25  3.75 1.25 25  3.75 0 25  5 0 25  5 1.25 26.25  5 1.25 25  5 2.5 25  5 2.5 26.25  5 2.5 27.5  3.75 0 26.25  5 0 26.25  5 0 27.5  3.75 0 27.5  3.75 2.5 26.25  3.75 2.5 25  3.75 2.5 27.5  6.25 1.25 26.25  6.25 0 26.25  6.25 1.25 25  6.25 2.5 26.25  6.25 2.5 25  7.5 2.5 25  1.25 3.75 26.25  1.25 3.75 25  2.5 3.75 26.25  2.5 3.75 25  2.5 5 25  2.5 5 26.25  2.5 5 27.5  0 3.75 25  0 5 25  1.25 5 26.25  1.25 5 25  0 3.75 26.25  0 5 26.25  0 5 27.5  1.25 5 27.5  3.75 3.75 26.25  3.75 3.75 25  5 3.75 26.25  5 3.75 25  5 5 25  5 5 26.25  5 5 27.5  5 3.75 27.5  3.75 5 26.25  3.75 5 25  3.75 5 27.5  6.25 3.75 26.25  6.25 3.75 25  7.5 3.75 25  7.5 5 25  6.25 5 26.25  6.25 5 25  1.25 6.25 26.25  1.25 6.25 25  2.5 6.25 26.25  2.5 6.25 25  2.5 7.5 25  2.5 7.5 26.25  2.5 7.5 27.5  0 6.25 25  0 7.5 25  1.25 7.5 26.25  1.25 7.5 25  0 6.25 26.25  0 6.25 27.5  0 7.5 27.5  0 7.5 26.25  3.75 6.25 26.25  3.75 6.25 25  5 6.25 26.25  5 6.25 25  5 7.5 25  5 7.5 26.25  5 7.5 27.5  5 6.25 27.5  3.75 7.5 26.25  3.75 7.5 25  6.25 6.25 26.25  6.25 6.25 25  7.5 6.25 26.25  7.5 6.25 25  7.5 7.5 25  6.25 7.5 26.25  6.25 7.5 25  1.25 8.75 26.25  1.25 8.75 25  2.5 8.75 26.25  2.5 8.75 25  2.5 10 25  0 8.75 25  0 10 25  1.25 10 25  0 8.75 26.25  3.75 8.75 26.25  3.75 8.75 25  5 8.75 26.25  5 8.75 25  5 10 25  3.75 10 25  6.25 8.75 26.25  6.25 8.75 25  7.5 8.75 26.25  7.5 8.75 25  7.5 10 25  6.25 10 25  3.75 11.25 26.25  3.75 11.25 25  5 11.25 25  5 12.5 25  2.5 11.25 25  2.5 12.5 25  3.75 12.5 25  6.25 11.25 26.25  6.25 11.25 25  7.5 11.25 26.25  7.5 11.25 25  7.5 12.5 25  6.25 12.5 25  17.5 0 22.5  18.75 1.25 23.75  18.75 1.25 22.5  18.75 0 22.5  20 0 22.5  20 1.25 23.75  20 1.25 22.5  20 2.5 22.5  20 2.5 23.75  20 2.5 25  18.75 0 23.75  20 0 23.75  20 0 25  17.5 0 23.75  17.5 0 25  18.75 0 25  17.5 1.25 22.5  17.5 2.5 22.5  18.75 2.5 23.75  18.75 2.5 22.5  17.5 1.25 23.75  17.5 1.25 25  17.5 2.5 25  17.5 2.5 23.75  18.75 2.5 25  21.25 1.25 23.75  21.25 1.25 22.5  21.25 0 22.5  22.5 0 22.5  22.5 1.25 23.75  22.5 1.25 22.5  22.5 2.5 22.5  22.5 2.5 23.75  22.5 2.5 25  21.25 0 23.75  22.5 0 23.75  22.5 0 25  22.5 1.25 25  21.25 2.5 23.75  21.25 2.5 22.5  23.75 1.25 23.75  23.75 0 23.75  23.75 1.25 25  23.75 0 25  18.75 3.75 23.75  20 3.75 23.75  17.5 3.75 23.75  21.25 3.75 23.75  21.25 3.75 22.5  22.5 3.75 22.5  22.5 5 22.5  6.25 0 25  7.5 0 25  7.5 1.25 26.25  7.5 1.25 25  7.5 0 26.25  8.75 1.25 26.25  8.75 1.25 25  8.75 0 25  10 0 25  10 1.25 26.25  10 1.25 25  10 2.5 25  10 2.5 26.25  10 2.5 27.5  8.75 0 26.25  10 0 26.25  10 0 27.5  10 1.25 27.5  8.75 2.5 26.25  8.75 2.5 25  11.25 1.25 26.25  11.25 1.25 25  11.25 0 25  12.5 0 25  12.5 1.25 26.25  12.5 1.25 25  12.5 2.5 25  11.25 0 26.25  12.5 0 26.25  12.5 0 27.5  11.25 0 27.5  11.25 2.5 26.25  11.25 2.5 25  13.75 1.25 26.25  13.75 1.25 25  13.75 0 25  15 0 25  15 1.25 26.25  15 1.25 25  15 2.5 25  13.75 0 26.25  15 0 26.25  15 0 27.5  13.75 0 27.5  13.75 2.5 25  16.25 1.25 26.25  16.25 1.25 25  16.25 0 25  16.25 0 26.25  16.25 2.5 25  23.75 1.25 26.25  23.75 0 26.25  8.75 3.75 26.25  8.75 3.75 25  10 3.75 26.25  10 3.75 25  10 5 25  8.75 5 26.25  8.75 5 25  11.25 3.75 26.25  11.25 3.75 25  12.5 3.75 25  12.5 5 25  11.25 5 25  8.75 6.25 26.25  8.75 6.25 25  10 6.25 25  10 7.5 25  8.75 7.5 25  8.75 8.75 26.25  8.75 8.75 25  10 8.75 26.25  10 8.75 25  10 10 25  8.75 10 26.25  8.75 10 25  11.25 8.75 26.25  11.25 8.75 25  11.25 7.5 25  12.5 7.5 25  11.25 10 25  12.5 10 25  8.75 11.25 26.25  8.75 11.25 25  10 11.25 25  10 12.5 25  8.75 12.5 25  0 0 0  1.25 1.25 1.25  1.25 1.25 0  1.25 0 0  2.5 0 0  2.5 1.25 1.25  2.5 1.25 0  2.5 2.5 0  2.5 2.5 1.25  2.5 2.5 2.5  1.25 0 1.25  2.5 0 1.25  2.5 0 2.5  2.5 1.25 2.5  0 0 1.25  0 0 2.5  1.25 1.25 2.5  1.25 0 2.5  0 1.25 0  0 2.5 0  1.25 2.5 1.25  1.25 2.5 0  0 1.25 1.25  0 1.25 2.5  0 2.5 2.5  1.25 2.5 2.5  0 2.5 1.25  3.75 1.25 1.25  3.75 1.25 0  3.75 0 0  5 0 0  5 1.25 1.25  5 1.25 0  5 2.5 0  5 2.5 1.25  5 2.5 2.5  3.75 0 1.25  5 0 1.25  5 0 2.5  5 1.25 2.5  3.75 1.25 2.5  3.75 0 2.5  3.75 2.5 1.25  3.75 2.5 0  3.75 2.5 2.5  6.25 1.25 1.25  6.25 1.25 0  6.25 0 0  7.5 0 0  7.5 1.25 1.25  7.5 1.25 0  7.5 2.5 0  7.5 2.5 1.25  7.5 2.5 2.5  6.25 0 1.25  7.5 0 1.25  7.5 0 2.5  7.5 1.25 2.5  6.25 1.25 2.5  6.25 0 2.5  6.25 2.5 1.25  6.25 2.5 0  6.25 2.5 2.5  8.75 1.25 1.25  8.75 1.25 0  8.75 0 0  10 0 0  10 1.25 1.25  10 1.25 0  10 2.5 0  10 2.5 1.25  10 2.5 2.5  8.75 0 1.25  10 0 1.25  10 0 2.5  10 1.25 2.5  8.75 1.25 2.5  8.75 0 2.5  8.75 2.5 1.25  8.75 2.5 0  8.75 2.5 2.5  1.25 3.75 1.25  1.25 3.75 0  2.5 3.75 1.25  2.5 3.75 0  2.5 5 0  2.5 5 1.25  2.5 5 2.5  2.5 3.75 2.5  1.25 3.75 2.5  0 3.75 0  0 5 0  1.25 5 1.25  1.25 5 0  0 3.75 1.25  0 3.75 2.5  0 5 2.5  1.25 5 2.5  0 5 1.25  3.75 3.75 1.25  3.75 3.75 0  5 3.75 1.25  5 3.75 0  5 5 0  5 5 1.25  5 5 2.5  5 3.75 2.5  3.75 3.75 2.5  3.75 5 1.25  3.75 5 0  3.75 5 2.5  6.25 3.75 1.25  6.25 3.75 0  7.5 3.75 1.25  7.5 3.75 0  7.5 5 0  7.5 5 1.25  7.5 5 2.5  7.5 3.75 2.5  6.25 3.75 2.5  6.25 5 1.25  6.25 5 0  6.25 5 2.5  8.75 3.75 1.25  8.75 3.75 0  10 3.75 1.25  10 3.75 0  10 5 0  10 5 1.25  10 5 2.5  10 3.75 2.5  8.75 3.75 2.5  8.75 5 1.25  8.75 5 0  8.75 5 2.5  1.25 6.25 1.25  1.25 6.25 0  2.5 6.25 1.25  2.5 6.25 0  2.5 7.5 0  2.5 7.5 1.25  2.5 7.5 2.5  2.5 6.25 2.5  1.25 6.25 2.5  0 6.25 0  0 7.5 0  1.25 7.5 1.25  1.25 7.5 0  0 6.25 1.25  0 6.25 2.5  0 7.5 2.5  1.25 7.5 2.5  0 7.5 1.25  3.75 6.25 1.25  3.75 6.25 0  5 6.25 1.25  5 6.25 0  5 7.5 0  5 7.5 1.25  5 7.5 2.5  5 6.25 2.5  3.75 6.25 2.5  3.75 7.5 1.25  3.75 7.5 0  3.75 7.5 2.5  6.25 6.25 1.25  6.25 6.25 0  7.5 6.25 1.25  7.5 6.25 0  7.5 7.5 0  7.5 7.5 1.25  7.5 7.5 2.5  7.5 6.25 2.5  6.25 6.25 2.5  6.25 7.5 1.25  6.25 7.5 0  6.25 7.5 2.5  8.75 6.25 1.25  8.75 6.25 0  10 6.25 1.25  10 6.25 0  10 7.5 0  10 7.5 1.25  10 7.5 2.5  10 6.25 2.5  8.75 6.25 2.5  8.75 7.5 1.25  8.75 7.5 0  8.75 7.5 2.5  1.25 8.75 1.25  1.25 8.75 0  2.5 8.75 1.25  2.5 8.75 0  2.5 10 0  2.5 10 1.25  2.5 10 2.5  2.5 8.75 2.5  1.25 8.75 2.5  0 8.75 0  0 10 0  1.25 10 1.25  1.25 10 0  0 8.75 1.25  0 8.75 2.5  0 10 2.5  1.25 10 2.5  0 10 1.25  3.75 8.75 1.25  3.75 8.75 0  5 8.75 1.25  5 8.75 0  5 10 0  5 10 1.25  5 10 2.5  5 8.75 2.5  3.75 8.75 2.5  3.75 10 1.25  3.75 10 0  3.75 10 2.5  6.25 8.75 1.25  6.25 8.75 0  7.5 8.75 1.25  7.5 8.75 0  7.5 10 0  7.5 10 1.25  7.5 10 2.5  7.5 8.75 2.5  6.25 8.75 2.5  6.25 10 1.25  6.25 10 0  6.25 10 2.5  8.75 8.75 1.25  8.75 8.75 0  10 8.75 1.25  10 8.75 0  10 10 0  10 10 1.25  10 10 2.5  10 8.75 2.5  8.75 8.75 2.5  8.75 10 1.25  8.75 10 0  8.75 10 2.5  1.25 11.25 1.25  1.25 11.25 0  2.5 11.25 1.25  2.5 11.25 0  2.5 12.5 0  2.5 12.5 1.25  2.5 12.5 2.5  2.5 11.25 2.5  1.25 11.25 2.5  0 11.25 1.25  0 11.25 2.5  3.75 11.25 1.25  3.75 11.25 0  5 11.25 1.25  5 11.25 0  5 11.25 2.5  3.75 11.25 2.5  6.25 11.25 1.25  6.25 11.25 0  7.5 11.25 1.25  7.5 11.25 0  7.5 11.25 2.5  6.25 11.25 2.5  8.75 11.25 1.25  8.75 11.25 0  8.75 11.25 2.5  1.25 1.25 3.75  2.5 1.25 3.75  2.5 2.5 3.75  2.5 2.5 5  1.25 0 3.75  2.5 0 3.75  2.5 0 5  2.5 1.25 5  0 0 3.75  0 0 5  1.25 1.25 5  1.25 0 5  1.25 2.5 3.75  0 1.25 3.75  0 1.25 5  0 2.5 5  1.25 2.5 5  0 2.5 3.75  3.75 1.25 3.75  5 1.25 3.75  5 2.5 3.75  5 2.5 5  3.75 0 3.75  5 0 3.75  5 0 5  5 1.25 5  3.75 1.25 5  3.75 0 5  3.75 2.5 3.75  3.75 2.5 5  6.25 1.25 3.75  7.5 1.25 3.75  7.5 2.5 3.75  7.5 2.5 5  6.25 0 3.75  7.5 0 3.75  7.5 0 5  7.5 1.25 5  6.25 1.25 5  6.25 0 5  6.25 2.5 3.75  6.25 2.5 5  8.75 1.25 3.75  10 1.25 3.75  10 2.5 3.75  10 2.5 5  8.75 0 3.75  10 0 3.75  10 0 5  10 1.25 5  8.75 1.25 5  8.75 0 5  8.75 2.5 3.75  8.75 2.5 5  1.25 3.75 3.75  2.5 3.75 3.75  2.5 5 3.75  2.5 5 5  2.5 3.75 5  1.25 3.75 5  1.25 5 3.75  0 3.75 3.75  0 3.75 5  0 5 5  1.25 5 5  0 5 3.75  3.75 3.75 3.75  5 3.75 3.75  5 5 3.75  5 5 5  5 3.75 5  3.75 3.75 5  3.75 5 3.75  3.75 5 5  6.25 3.75 3.75  7.5 3.75 3.75  7.5 5 3.75  7.5 5 5  7.5 3.75 5  6.25 3.75 5  6.25 5 3.75  6.25 5 5  8.75 3.75 3.75  10 3.75 3.75  10 5 3.75  10 5 5  10 3.75 5  8.75 3.75 5  8.75 5 3.75  8.75 5 5  1.25 6.25 3.75  2.5 6.25 3.75  2.5 7.5 3.75  2.5 7.5 5  2.5 6.25 5  1.25 6.25 5  1.25 7.5 3.75  0 6.25 3.75  0 6.25 5  0 7.5 5  1.25 7.5 5  0 7.5 3.75  3.75 6.25 3.75  5 6.25 3.75  5 7.5 3.75  5 7.5 5  5 6.25 5  3.75 6.25 5  3.75 7.5 3.75  3.75 7.5 5  6.25 6.25 3.75  7.5 6.25 3.75  7.5 7.5 3.75  7.5 7.5 5  7.5 6.25 5  6.25 6.25 5  6.25 7.5 3.75  6.25 7.5 5  8.75 6.25 3.75  10 6.25 3.75  10 7.5 3.75  10 7.5 5  10 6.25 5  8.75 6.25 5  8.75 7.5 3.75  8.75 7.5 5  1.25 8.75 3.75  2.5 8.75 3.75  2.5 10 3.75  2.5 10 5  2.5 8.75 5  1.25 8.75 5  1.25 10 3.75  0 8.75 3.75  0 8.75 5  0 10 5  1.25 10 5  0 10 3.75  3.75 8.75 3.75  5 8.75 3.75  5 10 3.75  5 10 5  5 8.75 5  3.75 8.75 5  3.75 10 3.75  3.75 10 5  6.25 8.75 3.75  7.5 8.75 3.75  7.5 10 3.75  7.5 10 5  7.5 8.75 5  6.25 8.75 5  6.25 10 3.75  6.25 10 5  8.75 8.75 3.75  10 8.75 3.75  10 10 3.75  10 10 5  10 8.75 5  8.75 8.75 5  8.75 10 3.75  8.75 10 5  1.25 11.25 3.75  2.5 11.25 3.75  2.5 12.5 3.75  2.5 12.5 5  2.5 11.25 5  1.25 11.25 5  0 11.25 3.75  0 11.25 5  0 12.5 5  1.25 12.5 5  3.75 11.25 3.75  5 11.25 3.75  5 11.25 5  3.75 11.25 5  6.25 11.25 3.75  7.5 11.25 3.75  7.5 11.25 5  6.25 11.25 5  8.75 11.25 3.75  8.75 11.25 5  1.25 1.25 6.25  2.5 1.25 6.25  2.5 2.5 6.25  2.5 2.5 7.5  1.25 0 6.25  2.5 0 6.25  2.5 0 7.5  2.5 1.25 7.5  0 0 6.25  0 0 7.5  1.25 1.25 7.5  1.25 0 7.5  1.25 2.5 6.25  0 1.25 6.25  0 1.25 7.5  0 2.5 7.5  1.25 2.5 7.5  0 2.5 6.25  3.75 1.25 6.25  5 1.25 6.25  5 2.5 6.25  5 2.5 7.5  3.75 
[...]
<PointData  Scalars="c_HbCO2"> 
<DataArray  type="Float64"  Name="c_HbCO2"  format="ascii">6.3999999999999997e-22  -3.5280731142845885e-22  -5.3123532571327271e-23  1.9158362371489886e-23  2.8550072787131067e-23  4.9292957736235528e-24  1.6180288343360258e-23  2.8550072787130885e-23  1.6180288343360335e-23  2.8550072787130991e-23  -5.3123532571327729e-23  1.6180288343361034e-23  2.8550072787131014e-23  6.3999999999999997e-22  6.3999999999999997e-22  6.3999999999999997e-22  6.3999999999999997e-22  -5.3123532571327483e-23  1.9158362371489762e-23  6.3999999999999997e-22  6.3999999999999997e-22  6.3999999999999997e-22  -7.0717133559807333e-24  -2.0474611964195174e-24  1.4268857288889323e-25  8.9028315450945635e-25  5.5008963870204889e-26  3.9893620380652024e-25  8.9028315450960163e-25  3.9893620380622862e-25  8.9028315450939224e-25  -2.0474611964193510e-24  3.9893620380630021e-25  8.9028315450946130e-25  1.4268857288907244e-25  -2.0474611964195258e-24  1.4268857288883920e-25  1.4268857288914520e-25  -1.6767296409749607e-25  -5.8904454437360689e-26  -5.8904454437420359e-26  -5.8904454437826008e-26  -6.4352019655157433e-28  2.4825600154581021e-26  -3.5280731142845866e-22  -5.3123532571327588e-23  4.9292957736239032e-24  1.6180288343360073e-23  2.8550072787130908e-23  1.6180288343360044e-23  2.8550072787130791e-23  6.3999999999999997e-22  6.3999999999999997e-22  -5.3123532571327059e-23  1.9158362371490091e-23  6.3999999999999997e-22  6.3999999999999997e-22  6.3999999999999997e-22  1.9158362371489295e-23  -7.0717133559807568e-24  -2.0474611964193987e-24  5.5008963870079051e-26  3.9893620380627550e-25  8.9028315450963616e-25  3.9893620380640876e-25  8.9028315450977575e-25  3.9893620380633864e-25  -2.0474611964195009e-24  1.4268857288898681e-25  1.4268857288953465e-25  -1.6767296409732771e-25  -5.8904454437563106e-26  1.0151011428606404e-26  2.4825600154646852e-26  -5.8904454438054564e-26  -6.4352019648136546e-28  -3.5280731142845767e-22  -5.3123532571327412e-23  4.9292957736235880e-24  1.6180288343360273e-23  2.8550072787131020e-23  1.6180288343360590e-23  2.8550072787130761e-23  6.3999999999999997e-22  6.3999999999999997e-22  -5.3123532571327283e-23  1.9158362371489753e-23  6.3999999999999997e-22  6.3999999999999997e-22  6.3999999999999997e-22  6.3999999999999997e-22  -7.0717133559807230e-24  -2.0474611964194829e-24  5.5008963869927270e-26  3.9893620380637285e-25  8.9028315450946075e-25  3.9893620380642106e-25  8.9028315450948647e-25  3.9893620380663210e-25  -2.0474611964193929e-24  1.4268857288870063e-25  -1.6767296409738178e-25  -5.8904454437629492e-26  8.5307086586527282e-28  1.0151011428522105e-26  2.4825600154652647e-26  -5.8904454437496399e-26  -6.4352019664520743e-28  -3.5280731142845852e-22  -5.3123532571327483e-23  4.9292957736234279e-24  1.6180288343360103e-23  2.8550072787130814e-23  6.3999999999999997e-22  6.3999999999999997e-22  1.9158362371489248e-23  6.3999999999999997e-22  -7.0717133559807583e-24  -2.0474611964194652e-24  5.5008963869822187e-26  3.9893620380660914e-25  8.9028315450949914e-25  1.4268857288907201e-25  -1.6767296409743879e-25  -5.8904454437611285e-26  8.5307086578236079e-28  1.0151011428587878e-26  2.4825600154625257e-26  -6.4352019666263904e-28  -7.0717133559808023e-24  -2.0474611964193179e-24  3.9893620380614601e-25  8.9028315450938894e-25  1.6180288343359941e-23  2.8550072787130597e-23  1.4268857288880265e-25  -1.6767296409745178e-25  -5.8904454437466851e-26  8.5307086585954224e-28  1.0151011428692582e-26  2.4825600154628276e-26  -6.4352019661003004e-28  1.2190000695195274e-32  -1.9768956937286708e-33  -7.6570206880915057e-34  -4.2388486160590955e-35  3.2016122353117233e-34  6.9211079918030509e-36  1.2411114012991750e-34  3.2016123350072184e-34  1.2411150932550216e-34  3.2016010862427379e-34  -7.6570331999004838e-34  1.2411356561161088e-34  3.2016350393558866e-34  4.7282237562620944e-33  1.2190000433602678e-32  -4.2391712667000991e-35  4.7282264071429214e-33  1.2189998283388702e-32  -7.6570379553062921e-34  -4.2380668711191367e-35  2.6504288549641343e-34  4.7282439513415436e-33  1.2189997705225090e-32  4.7282256052351574e-33  -4.2386826375967874e-35  -5.1892120774259605e-35  -2.0106198680810355e-35  -1.1173949363702463e-36  8.4072263173543527e-36  1.8112904280346103e-37  3.2587780165552253e-36  8.4067422359996175e-36  3.2578189600798655e-36  8.4070561538278648e-36  -2.0107209771985614e-35  3.2578674193258482e-36  8.4071990500039724e-36  3.2584114905562151e-36  -2.0105071540781473e-35  -1.1157711803714790e-36  -1.3625389435305484e-36  -5.2938245222711947e-37  -5.2745347592599106e-37  -2.9009993506004457e-38  -1.9768934256355887e-33  6.9217010781579192e-36  2.6504684495481254e-34  -5.1894462260610525e-35  -2.0104895780164859e-35  3.2574348493237110e-36  8.4084312213197308e-36  -6.4352019668157760e-28  2.4825600154701454e-26  8.5307086588436671e-28  1.0151011428504634e-26  1.0151011428496625e-26  -4.2437751535823365e-27  -1.5896401400053823e-27  -6.2773100321066809e-29  6.6592990476140636e-28  1.7255827193287749e-29  2.6313731070679521e-28  6.6592990471408076e-28  2.6313731072059636e-28  6.6592990472215924e-28  -1.5896401400196245e-27  2.6313731057261059e-28  6.6592990474621234e-28  2.6313731074739013e-28  -1.5896401399770372e-27  -6.2773100322495516e-29  -1.0997933445486315e-28  -4.2115035652757368e-29  -2.0983265222929291e-30  1.7618439560843336e-29  4.0655904993527649e-31  6.8755430071337502e-30  1.7618439562838874e-29  -4.2115035634796751e-29  6.8755429471106929e-30  1.7618439551048733e-29  -2.0983265487562275e-30  -4.2115035642568902e-29  -2.0983265139431409e-30  -2.8742188671997308e-30  -1.1091665341724216e-30  -5.9389603903785782e-32  4.6383895573178053e-31  1.0246381825797692e-32  1.8020149775505420e-31  4.6383895882978764e-31  -1.1091665432318600e-30  1.8020155000847400e-31  4.6383895991918325e-31  -5.9389554029099214e-32  -5.9389601462952104e-32  -7.5339404995840488e-32  -2.9152886683972764e-32  -1.5998120625376819e-33  -2.9152878378498711e-32  -1.5998066060161624e-33  -1.3620540512436387e-36  -5.2768144749845496e-37  -4.2437751536249998e-27  -1.5896401400289081e-27  1.7255827289551281e-29  2.6313731062457867e-28  6.6592990478018797e-28  -1.5896401401342632e-27  -6.2773100325889080e-29  -1.0997933447679764e-28  -4.2115035667583571e-29  6.8755429741292015e-30  1.7618439540951960e-29  -2.0983265414004755e-30  -4.2437751535987951e-27  -1.5896401400400163e-27  2.6313731076022531e-28  6.6592990474089287e-28  -6.2773100390404861e-29  -4.2437751536694740e-27  -1.5896401400407646e-27  1.7255827216246013e-29  2.6313731072183278e-28  6.6592990484446161e-28  -1.5896401399438234e-27  -6.2773100380808478e-29  -1.0997933447403805e-28  -4.2115035643370596e-29  -2.0983264989917978e-30  1.7618439539091201e-29  -2.0983265431537136e-30  1.7618439568725057e-29  -4.2437751536614413e-27  -1.5896401400600642e-27  2.6313731076611273e-28  6.6592990477187525e-28  -6.2773100481994962e-29  6.3999999999999997e-22  -3.5280731142845885e-22  -5.3123532571327635e-23  1.9158362371489486e-23  2.8550072787130926e-23  4.9292957736236424e-24  1.6180288343360746e-23  2.8550072787130897e-23  1.6180288343360203e-23  2.8550072787131032e-23  -5.3123532571327342e-23  1.6180288343360314e-23  2.8550072787130844e-23  1.6180288343360323e-23  6.3999999999999997e-22  6.3999999999999997e-22  -5.3123532571327424e-23  1.9158362371490074e-23  6.3999999999999997e-22  6.3999999999999997e-22  -5.3123532571327459e-23  1.9158362371490200e-23  6.3999999999999997e-22  6.3999999999999997e-22  6.3999999999999997e-22  1.9158362371489603e-23  6.3999999999999997e-22  -7.0717133559806760e-24  -2.0474611964197815e-24  1.4268857288915085e-25  8.9028315450914337e-25  5.5008963869963637e-26  3.9893620380620378e-25  8.9028315450980110e-25  3.9893620380628524e-25  8.9028315450941318e-25  -2.0474611964195585e-24  3.9893620380631182e-25  8.9028315450968575e-25  3.9893620380647042e-25  -2.0474611964193789e-24  1.4268857288890466e-25  -2.0474611964193646e-24  1.4268857288888202e-25  1.4268857288896624e-25  -1.6767296409743399e-25  -5.8904454437550421e-26  -6.4352019658155870e-28  2.4825600154782740e-26  8.5307086581447846e-28  1.0151011428497833e-26  2.4825600154552641e-26  1.0151011428706510e-26  2.4825600154598564e-26  -5.8904454437451273e-26  1.0151011428711746e-26  2.4825600154570066e-26  1.0151011428536369e-26  -5.8904454437559134e-26  -6.4352019662198964e-28  -5.8904454437545703e-26  -6.4352019634546740e-28  -6.4352019659409802e-28  -4.2437751536568165e-27  -1.5896401399367559e-27  -6.2773100516378107e-29  6.6592990461955567e-28  1.7255827142744607e-29  2.6313731087459189e-28  6.6592990477251908e-28  2.6313731072573709e-28  6.6592990474069001e-28  -1.5896401400330649e-27  2.6313731075593881e-28  6.6592990480427354e-28  2.6313731075314886e-28  -1.5896401400434475e-27  -6.2773100302230588e-29  -1.5896401400523515e-27  -6.2773100427717000e-29  -6.2773100397978409e-29  -3.5280731142845871e-22  -5.3123532571327753e-23  4.9292957736235865e-24  1.6180288343360538e-23  2.8550072787131226e-23  1.6180288343360258e-23  2.8550072787130979e-23  1.6180288343360426e-23  -5.3123532571327212e-23  6.3999999999999997e-22  6.3999999999999997e-22  -5.3123532571327518e-23  1.9158362371489877e-23  6.3999999999999997e-22  6.3999999999999997e-22  6.3999999999999997e-22  1.9158362371489674e-23  6.3999999999999997e-22  -7.0717133559806774e-24  -2.0474611964194796e-24  5.5008963870038517e-26  3.9893620380646129e-25  8.9028315450951512e-25  3.9893620380639907e-25  8.9028315450952320e-25  3.9893620380643631e-25  -2.0474611964193763e-24  -2.0474611964195582e-24  1.4268857288897916e-25  1.4268857288895159e-25  -1.6767296409737708e-25  -5.8904454437593687e-26  8.5307086575818169e-28  1.0151011428589420e-26  2.4825600154530749e-26  1.0151011428654930e-26  2.4825600154666060e-26  1.0151011428703955e-26  -5.8904454437556609e-26  -5.8904454437647170e-26  -6.4352019661723330e-28  -6.4352019654241741e-28  -4.2437751536253535e-27  -1.5896401399788827e-27  1.7255827222988184e-29  2.6313731071748561e-28  6.6592990479926751e-28  2.6313731072995668e-28  6.6592990476627929e-28  2.6313731072542755e-28  -1.5896401400163067e-27  -1.5896401399484658e-27  -6.2773100437593991e-29  -6.2773100368252765e-29  -3.5280731142845866e-22  -5.3123532571327788e-23  4.9292957736236255e-24  1.6180288343360614e-23  2.8550072787130979e-23  1.6180288343360297e-23  2.8550072787130873e-23  1.6180288343360358e-23  -5.3123532571327283e-23  6.3999999999999997e-22  6.3999999999999997e-22  -5.3123532571327530e-23  1.9158362371489659e-23  6.3999999999999997e-22  6.3999999999999997e-22  6.3999999999999997e-22  1.9158362371489762e-23  6.3999999999999997e-22  -7.0717133559807480e-24  -2.0474611964194759e-24  5.5008963869874751e-26  3.9893620380644696e-25  8.9028315450953698e-25  3.9893620380641371e-25  8.9028315450945084e-25  3.9893620380641872e-25  -2.0474611964195648e-24  -2.0474611964195203e-24  1.4268857288908236e-25  1.4268857288909366e-25  -1.6767296409742437e-25  -5.8904454437618219e-26  8.5307086583393682e-28  1.0151011428578126e-26  2.4825600154494015e-26  1.0151011428661683e-26  2.4825600154689220e-26  1.0151011428701172e-26  -5.8904454437642176e-26  -5.8904454437560420e-26  -6.4352019652174106e-28  -6.4352019667202330e-28  -4.2437751536350005e-27  -1.5896401399452923e-27  1.7255827226221083e-29  2.6313731086453299e-28  6.6592990477839063e-28  2.6313731071571621e-28  6.6592990474669196e-28  2.6313731071044787e-28  -1.5896401400029292e-27  -1.5896401399167741e-27  -6.2773100412184268e-29  -6.2773100423268203e-29  -3.5280731142845871e-22  -5.3123532571327765e-23  4.9292957736237188e-24  1.6180288343360623e-23  2.8550072787131267e-23  1.6180288343360297e-23  2.8550072787130979e-23  1.6180288343360338e-23  -5.3123532571327506e-23  6.3999999999999997e-22  6.3999999999999997e-22  -5.3123532571327541e-23  1.9158362371489362e-23  6.3999999999999997e-22  6.3999999999999997e-22  6.3999999999999997e-22  1.9158362371489806e-23  6.3999999999999997e-22  -7.0717133559807333e-24  -2.0474611964195876e-24  5.5008963869867301e-26  3.9893620380622118e-25  8.9028315450947012e-25  3.9893620380637271e-25  8.9028315450960292e-25  3.9893620380648255e-25  -2.0474611964195266e-24  -2.0474611964194347e-24  1.4268857288900157e-25  1.4268857288893834e-25  -1.6767296409742231e-25  -5.8904454437542696e-26  8.5307086586900184e-28  1.0151011428394605e-26  2.4825600154666474e-26  1.0151011428596090e-26  2.4825600154545483e-26  1.0151011428612215e-26  -5.8904454437625302e-26  -5.8904454437622581e-26  -6.4352019650229821e-28  -6.4352019658695485e-28  -4.2437751535873343e-27  -1.5896401398834830e-27  1.7255827297960605e-29  2.6313731060329979e-28  6.6592990469883428e-28  2.6313731069781502e-28  6.6592990475935127e-28  2.6313731065000365e-28  -1.5896401399583944e-27  -1.5896401400013332e-27  -6.2773100209321249e-29  -6.2773100431773513e-29  -3.5280731142845857e-22  -5.3123532571327189e-23  4.9292957736238393e-24  1.6180288343360000e-23  2.8550072787131014e-23  1.6180288343360170e-23  2.8550072787130844e-23  1.6180288343360294e-23  -5.3123532571327330e-23  6.3999999999999997e-22  6.3999999999999997e-22  -7.0717133559806921e-24  -2.0474611964194906e-24  5.5008963870028691e-26  3.9893620380659752e-25  3.9893620380630296e-25  -2.0474611964195291e-24  -1.6767296409740571e-25  -5.8904454437646481e-26  8.5307086578922370e-28  1.0151011428488727e-26  1.0151011428748010e-26  -5.8904454437661221e-26  -4.2437751536107294e-27  -1.5896401398945793e-27  -1.5896401400285551e-27  -3.5280731142845880e-22  4.9292957736236115e-24  1.6180288343360158e-23  2.8550072787131126e-23  -5.3123532571327412e-23  1.6180288343360549e-23  2.8550072787130979e-23  1.6180288343360496e-23  6.3999999999999997e-22  6.3999999999999997e-22  -5.3123532571327389e-23  1.9158362371489213e-23  -5.3123532571327200e-23  6.3999999999999997e-22  6.3999999999999997e-22  6.3999999999999997e-22  1.9158362371489321e-23  6.3999999999999997e-22  -7.0717133559806892e-24  5.5008963869900672e-26  3.9893620380638887e-25  8.9028315450951328e-25  -2.0474611964196919e-24  3.9893620380642891e-25  8.9028315450969989e-25  3.9893620380652828e-25  -2.0474611964195718e-24  1.4268857288877283e-25  -2.0474611964197242e-24  1.4268857288883475e-25  -1.6767296409738206e-25  8.5307086584734839e-28  1.0151011428664883e-26  2.4825600154586565e-26  -5.8904454437528082e-26  1.0151011428594821e-26  2.4825600154650819e-26  1.0151011428629594e-26  -5.8904454437575205e-26  -6.4352019677289213e-28  -5.8904454437532456e-26  -6.4352019668254591e-28  -4.2437751537134517e-27  1.7255827224719530e-29  2.6313731070561637e-28  6.6592990476903418e-28  -1.5896401399266001e-27  2.6313731059355998e-28  6.6592990479756076e-28  2.6313731072033431e-28  -1.5896401399264841e-27  -6.2773100480107985e-29  -1.5896401400176452e-27  -6.2773100403152911e-29  -3.5280731142845852e-22  4.9292957736236857e-24  1.6180288343359917e-23  2.8550072787130991e-23  1.6180288343360297e-23  -5.3123532571327200e-23  -5.3123532571327471e-23  6.3999999999999997e-22  6.3999999999999997e-22  6.3999999999999997e-22  1.9158362371489609e-23  6.3999999999999997e-22  -7.0717133559807612e-24  5.5008963869896011e-26  3.9893620380652213e-25  8.9028315450953275e-25  3.9893620380647846e-25  -2.0474611964193910e-24  -2.0474611964196045e-24  1.4268857288876812e-25  -1.6767296409738259e-25  8.5307086582070193e-28  1.0151011428651716e-26  2.4825600154587432e-26  1.0151011428652643e-26  -5.8904454437575022e-26  -5.8904454437557148e-26  -6.4352019654406902e-28  -4.2437751536128703e-27  1.7255827170619048e-29  2.6313731071397470e-28  6.6592990478958228e-28  2.6313731075919135e-28  -1.5896401400167839e-27  -1.5896401400290184e-27  -6.2773100431330131e-29  -3.5280731142845880e-22  4.9292957736235954e-24  1.6180288343359982e-23  2.8550072787131126e-23  1.6180288343360526e-23  -5.3123532571327189e-23  -5.3123532571327353e-23  6.3999999999999997e-22  6.3999999999999997e-22  6.3999999999999997e-22  1.9158362371489721e-23  6.3999999999999997e-22  -7.0717133559807465e-24  5.5008963869868771e-26  3.9893620380655904e-25  8.9028315450949271e-25  3.9893620380652681e-25  -2.0474611964195020e-24  -2.0474611964195754e-24  1.4268857288878961e-25  -1.6767296409728953e-25  8.5307086584669388e-28  1.0151011428604385e-26  2.4825600154600963e-26  1.0151011428604843e-26  -5.8904454437636069e-26  -5.8904454437516052e-26  -6.4352019655194884e-28  -4.2437751536217418e-27  1.7255827161672749e-29  2.6313731071193710e-28  6.6592990474913484e-28  2.6313731069959227e-28  -1.5896401400517931e-27  -1.5896401399731876e-27  -6.2773100390552188e-29  -3.5280731142845852e-22  4.9292957736235050e-24  1.6180288343360276e-23  2.8550072787130979e-23  1.6180288343360185e-23  -5.3123532571326895e-23  -5.3123532571327400e-23  6.3999999999999997e-22  6.3999999999999997e-22  6.3999999999999997e-22  1.9158362371489739e-23  6.3999999999999997e-22  -7.0717133559807303e-24  5.5008963869813233e-26  3.9893620380638157e-25  8.9028315450950612e-25  3.9893620380656520e-25  -2.0474611964196540e-24  -2.0474611964194689e-24  1.4268857288899122e-25  -1.6767296409738022e-25  8.5307086583446165e-28  1.0151011428643059e-26  2.4825600154670764e-26  1.0151011428614022e-26  -5.8904454437611699e-26  -5.8904454437511908e-26  -6.4352019658694740e-28  -4.2437751536307969e-27  1.7255827222912071e-29  2.6313731067086098e-28  6.6592990475110751e-28  2.6313731075126475e-28  -1.5896401399909402e-27  -1.5896401398993985e-27  -6.2773100362798688e-29  -3.5280731142845833e-22  4.9292957736233720e-24  1.6180288343360485e-23  2.8550072787130938e-23  1.6180288343360402e-23  -5.3123532571327236e-23  6.3999999999999997e-22  6.3999999999999997e-22  6.3999999999999997e-22  1.9158362371489512e-23  -7.0717133559808552e-24  5.5008963870299491e-26  3.9893620380621884e-25  -2.0474611964198803e-24  -1.6767296409740594e-25  8.5307086574069904e-28  1.0151011428593025e-26  -5.8904454437728663e-26  -4.2437751535764404e-27  -1.5896401399038210e-27  -3.5280731142845890e-22  4.9292957736235366e-24  1.6180288343360147e-23  2.8550072787131055e-23  -5.3123532571327365e-23  1.6180288343360297e-23  2.8550072787131249e-23  1.6180288343360129e-23  6.3999999999999997e-22  6.3999999999999997e-22  -5.3123532571327389e-23  1.9158362371489351e-23  -5.3123532571327283e-23  6.3999999999999997e-22  6.3999999999999997e-22  6.3999999999999997e-22  1.9158362371489433e-23  6.3999999999999997e-22  -7.0717133559805452e-24  5.5008963869802316e-26  3.9893620380646634e-25  8.9028315450955424e-25  -2.0474611964196581e-24  3.9893620380640063e-25  8.9028315450947416e-25  3.9893620380638644e-25  -2.0474611964193271e-24  1.4268857288860415e-25  -2.0474611964197025e-24  1.4268857288880316e-25  -1.6767296409744942e-25  8.5307086574682906e-28  1.0151011428696153e-26  2.4825600154652228e-26  -5.8904454437457507e-26  1.0151011428589716e-26  2.4825600154640564e-26  1.0151011428661484e-26  -5.8904454437651142e-26  -6.4352019659857706e-28  -5.8904454437511070e-26  -6.4352019662680078e-28  -4.2437751536475361e-27  1.7255827252469639e-29  2.6313731064188689e-28  6.6592990478092275e-28  -1.5896401399625814e-27  2.6313731066677596e-28  6.6592990477667706e-28  2.6313731070787316e-28  -1.5896401399298510e-27  -6.2773100537973551e-29  -1.5896401400371999e-27  -6.2773100426878138e-29  -3.5280731142845866e-22  4.9292957736235417e-24  1.6180288343360156e-23  2.8550072787131220e-23  1.6180288343360261e-23  -5.3123532571327142e-23  -5.3123532571327377e-23  6.3999999999999997e-22  6.3999999999999997e-22  6.3999999999999997e-22  1.9158362371489598e-23  6.3999999999999997e-22  -7.0717133559808302e-24  5.5008963869986791e-26  3.9893620380627344e-25  8.9028315450962367e-25  3.9893620380632496e-25  -2.0474611964193657e-24  -2.0474611964194204e-24  1.4268857288903980e-25  -1.6767296409743900e-25  8.5307086580365783e-28  1.0151011428714151e-26  2.4825600154556414e-26  1.0151011428642408e-26  -5.8904454437569994e-26  -5.8904454437506294e-26  -6.4352019649734941e-28  -4.2437751536699863e-27  1.7255827238636425e-29  2.6313731068340599e-28  6.65929904