<?xml version="1.0"?>
<VTKFile type="UnstructuredGrid"  version="0.1"  >
<UnstructuredGrid>
<Piece  NumberOfPoints="3890" NumberOfCells="19071">
<Points>
<DataArray  type="Float64"  NumberOfComponents="3"  format="ascii">25 17.5 25  25 17.5 26.25  25 16.25 26.25  23.75 16.25 26.25  25 17.5 27.5  23.75 17.5 26.25  25 18.75 26.25  25 18.75 25  23.75 18.75 26.25  23.75 18.75 25  25 20 25  25 20 26.25  25 20 27.5  25 18.75 27.5  22.5 15 7.5  22.5 16.25 8.75  22.5 16.25 7.5  21.25 16.25 8.75  22.5 17.5 7.5  22.5 17.5 8.75  22.5 17.5 10  22.5 15 8.75  22.5 15 10  22.5 16.25 10  21.25 16.25 10  22.5 18.75 8.75  22.5 18.75 7.5  21.25 18.75 8.75  22.5 20 7.5  22.5 20 8.75  22.5 20 10  22.5 18.75 10  21.25 18.75 10  22.5 16.25 11.25  21.25 16.25 11.25  22.5 17.5 11.25  22.5 17.5 12.5  21.25 17.5 11.25  22.5 18.75 11.25  21.25 18.75 11.25  22.5 20 11.25  22.5 20 12.5  22.5 18.75 12.5  21.25 18.75 12.5  22.5 21.25 11.25  22.5 21.25 10  21.25 21.25 11.25  22.5 22.5 10  22.5 22.5 11.25  22.5 22.5 12.5  22.5 21.25 12.5  23.75 17.5 13.75  22.5 17.5 13.75  23.75 16.25 13.75  22.5 17.5 15  23.75 17.5 15  25 17.5 15  22.5 18.75 13.75  21.25 18.75 13.75  22.5 20 13.75  22.5 20 15  22.5 18.75 15  21.25 18.75 15  23.75 18.75 13.75  23.75 18.75 15  25 18.75 15  25 20 15  23.75 20 15  23.75 20 13.75  22.5 21.25 13.75  21.25 21.25 13.75  22.5 22.5 13.75  22.5 22.5 15  22.5 21.25 15  23.75 21.25 13.75  23.75 21.25 15  25 21.25 15  25 22.5 15  23.75 22.5 15  23.75 22.5 13.75  23.75 23.75 13.75  23.75 23.75 15  25 23.75 15  25 25 15  22.5 18.75 16.25  21.25 18.75 16.25  22.5 20 16.25  22.5 20 17.5  22.5 17.5 16.25  22.5 17.5 17.5  22.5 18.75 17.5  23.75 18.75 16.25  25 18.75 16.25  25 20 16.25  25 20 17.5  23.75 17.5 16.25  25 17.5 16.25  25 17.5 17.5  25 18.75 17.5  23.75 18.75 17.5  23.75 17.5 17.5  23.75 20 16.25  23.75 20 17.5  23.75 21.25 16.25  25 21.25 16.25  25 22.5 16.25  25 22.5 17.5  25 21.25 17.5  23.75 21.25 17.5  23.75 22.5 16.25  22.5 22.5 17.5  23.75 22.5 17.5  22.5 22.5 16.25  23.75 23.75 16.25  25 23.75 16.25  25 25 16.25  25 25 17.5  25 23.75 17.5  23.75 23.75 17.5  23.75 18.75 18.75  25 18.75 18.75  25 20 18.75  25 20 20  25 17.5 18.75  25 17.5 20  25 18.75 20  23.75 18.75 20  23.75 20 18.75  23.75 21.25 18.75  25 21.25 18.75  25 22.5 18.75  25 22.5 20  25 21.25 20  23.75 22.5 18.75  23.75 23.75 18.75  25 23.75 18.75  25 25 18.75  25 25 20  25 23.75 20  25 18.75 21.25  23.75 18.75 21.25  25 20 21.25  25 20 22.5  25 17.5 21.25  25 17.5 22.5  25 18.75 22.5  22.5 17.5 22.5  23.75 18.75 22.5  23.75 17.5 22.5  23.75 17.5 23.75  23.75 16.25 23.75  25 17.5 23.75  23.75 18.75 23.75  25 18.75 23.75  25 20 23.75  22.5 23.75 15  22.5 25 15  23.75 25 15  22.5 25 12.5  23.75 25 13.75  22.5 25 13.75  23.75 26.25 13.75  23.75 26.25 15  25 26.25 15  25 27.5 15  23.75 25 16.25  23.75 26.25 16.25  25 26.25 16.25  25 27.5 16.25  25 27.5 17.5  25 26.25 17.5  23.75 27.5 16.25  25 28.75 16.25  25 28.75 15  23.75 28.75 16.25  25 30 15  25 28.75 17.5  26.25 21.25 21.25  25 21.25 21.25  26.25 21.25 22.5  25 21.25 22.5  25 22.5 22.5  26.25 22.5 22.5  27.5 22.5 22.5  26.25 21.25 23.75  26.25 22.5 23.75  27.5 22.5 23.75  27.5 22.5 25  25 21.25 23.75  26.25 21.25 25  25 21.25 25  25 22.5 25  26.25 22.5 25  25 22.5 23.75  26.25 23.75 23.75  27.5 23.75 23.75  27.5 23.75 25  27.5 25 25  26.25 23.75 25  25 25 25  26.25 25 25  28.75 23.75 23.75  28.75 22.5 23.75  28.75 23.75 25  28.75 22.5 25  30 22.5 25  30 23.75 25  30 25 25  28.75 25 25  26.25 21.25 26.25  26.25 22.5 26.25  27.5 22.5 26.25  27.5 22.5 27.5  25 21.25 26.25  26.25 21.25 27.5  25 21.25 27.5  25 22.5 27.5  26.25 22.5 27.5  25 22.5 26.25  26.25 23.75 26.25  27.5 23.75 26.25  27.5 25 26.25  27.5 25 27.5  27.5 23.75 27.5  26.25 23.75 27.5  26.25 25 26.25  25 25 27.5  26.25 25 27.5  28.75 23.75 26.25  30 23.75 26.25  30 25 26.25  30 25 27.5  28.75 22.5 26.25  30 22.5 26.25  30 22.5 27.5  30 23.75 27.5  28.75 23.75 27.5  28.75 22.5 27.5  28.75 25 26.25  28.75 25 27.5  31.25 23.75 26.25  31.25 23.75 25  31.25 22.5 25  32.5 22.5 25  32.5 23.75 26.25  32.5 23.75 25  32.5 25 25  31.25 22.5 26.25  32.5 22.5 26.25  32.5 22.5 27.5  32.5 23.75 27.5  31.25 23.75 27.5  31.25 22.5 27.5  31.25 25 25  33.75 23.75 26.25  33.75 22.5 26.25  33.75 23.75 27.5  33.75 22.5 27.5  35 22.5 27.5  26.25 26.25 26.25  26.25 26.25 25  26.25 21.25 28.75  26.25 20 27.5  27.5 20 27.5  27.5 21.25 28.75  27.5 21.25 27.5  27.5 22.5 28.75  26.25 22.5 28.75  28.75 21.25 28.75  28.75 22.5 28.75  26.25 23.75 28.75  27.5 23.75 28.75  28.75 23.75 28.75  30 23.75 28.75  31.25 23.75 28.75  33.75 23.75 28.75  30 15 15  31.25 15 15  31.25 13.75 15  31.25 13.75 13.75  32.5 15 15  31.25 15 16.25  31.25 13.75 16.25  32.5 15 16.25  32.5 15 17.5  30 15 16.25  30 15 17.5  31.25 15 17.5  35 15 15  36.25 15 16.25  35 15 16.25  36.25 13.75 16.25  35 15 17.5  36.25 15 17.5  37.5 15 17.5  30 16.25 16.25  28.75 16.25 16.25  30 16.25 17.5  30 17.5 17.5  28.75 16.25 17.5  27.5 17.5 17.5  28.75 17.5 17.5  31.25 16.25 16.25  32.5 16.25 16.25  32.5 16.25 17.5  32.5 17.5 17.5  31.25 16.25 17.5  31.25 17.5 17.5  35 16.25 16.25  33.75 16.25 16.25  35 16.25 17.5  35 17.5 17.5  33.75 16.25 17.5  33.75 15 17.5  33.75 17.5 17.5  36.25 16.25 16.25  36.25 16.25 17.5  37.5 16.25 17.5  37.5 17.5 17.5  36.25 17.5 17.5  26.25 17.5 18.75  26.25 17.5 17.5  26.25 16.25 18.75  27.5 17.5 18.75  27.5 17.5 20  26.25 17.5 20  26.25 16.25 20  30 16.25 18.75  28.75 16.25 18.75  30 17.5 18.75  30 17.5 20  30 16.25 20  28.75 16.25 20  28.75 17.5 18.75  28.75 17.5 20  31.25 16.25 18.75  32.5 16.25 18.75  32.5 17.5 18.75  32.5 17.5 20  32.5 16.25 20  31.25 16.25 20  31.25 17.5 18.75  31.25 17.5 20  33.75 16.25 18.75  35 16.25 18.75  35 17.5 18.75  35 17.5 20  35 16.25 20  33.75 16.25 20  33.75 17.5 18.75  33.75 17.5 20  36.25 16.25 18.75  37.5 16.25 18.75  37.5 17.5 18.75  37.5 17.5 20  37.5 15 18.75  37.5 15 20  37.5 16.25 20  36.25 16.25 20  36.25 17.5 18.75  36.25 17.5 20  26.25 18.75 18.75  27.5 18.75 18.75  27.5 18.75 20  27.5 20 20  26.25 18.75 20  26.25 20 20  28.75 18.75 18.75  30 18.75 18.75  30 18.75 20  30 20 20  28.75 18.75 20  28.75 20 20  31.25 18.75 18.75  32.5 18.75 18.75  32.5 18.75 20  32.5 20 20  31.25 18.75 20  31.25 20 20  33.75 18.75 18.75  35 18.75 18.75  35 18.75 20  35 20 20  33.75 18.75 20  33.75 20 20  36.25 18.75 18.75  37.5 18.75 18.75  37.5 18.75 20  37.5 20 20  36.25 18.75 20  36.25 20 20  27.5 17.5 21.25  27.5 16.25 21.25  26.25 16.25 21.25  27.5 17.5 22.5  27.5 15 22.5  27.5 16.25 22.5  26.25 16.25 22.5  26.25 17.5 21.25  26.25 17.5 22.5  30 17.5 21.25  30 16.25 21.25  28.75 16.25 21.25  30 17.5 22.5  30 16.25 22.5  28.75 16.25 22.5  28.75 17.5 21.25  28.75 17.5 22.5  32.5 17.5 21.25  32.5 16.25 21.25  31.25 16.25 21.25  32.5 17.5 22.5  32.5 16.25 22.5  31.25 16.25 22.5  31.25 17.5 21.25  31.25 17.5 22.5  35 17.5 21.25  35 16.25 21.25  33.75 16.25 21.25  35 17.5 22.5  35 16.25 22.5  33.75 16.25 22.5  33.75 17.5 21.25  33.75 17.5 22.5  37.5 16.25 21.25  36.25 16.25 21.25  37.5 17.5 21.25  37.5 17.5 22.5  37.5 15 21.25  37.5 15 22.5  37.5 16.25 22.5  36.25 16.25 22.5  36.25 17.5 21.25  36.25 17.5 22.5  26.25 18.75 21.25  27.5 18.75 21.25  27.5 20 21.25  27.5 20 22.5  27.5 18.75 22.5  26.25 18.75 22.5  26.25 20 21.25  26.25 20 22.5  28.75 18.75 21.25  30 18.75 21.25  30 20 21.25  30 20 22.5  30 18.75 22.5  28.75 18.75 22.5  28.75 20 21.25  28.75 20 22.5  31.25 18.75 21.25  32.5 18.75 21.25  32.5 20 21.25  32.5 20 22.5  32.5 18.75 22.5  31.25 18.75 22.5  31.25 20 21.25  31.25 20 22.5  33.75 18.75 21.25  35 18.75 21.25  35 20 21.25  35 20 22.5  35 18.75 22.5  33.75 18.75 22.5  33.75 20 21.25  33.75 20 22.5  36.25 18.75 21.25  37.5 18.75 21.25  37.5 20 21.25  37.5 20 22.5  37.5 18.75 22.5  36.25 18.75 22.5  36.25 20 21.25  36.25 20 22.5  27.5 21.25 21.25  27.5 21.25 22.5  28.75 21.25 21.25  30 21.25 21.25  30 21.25 22.5  30 22.5 22.5  28.75 21.25 22.5  28.75 22.5 22.5  31.25 21.25 21.25  32.5 21.25 21.25  32.5 21.25 22.5  32.5 22.5 22.5  31.25 21.25 22.5  31.25 22.5 22.5  33.75 21.25 21.25  35 21.25 21.25  35 21.25 22.5  35 22.5 22.5  33.75 21.25 22.5  33.75 22.5 22.5  36.25 21.25 21.25  37.5 21.25 21.25  37.5 21.25 22.5  37.5 22.5 22.5  36.25 21.25 22.5  36.25 22.5 22.5  27.5 16.25 23.75  26.25 16.25 23.75  27.5 17.5 23.75  27.5 17.5 25  27.5 15 25  27.5 16.25 25  26.25 16.25 25  26.25 17.5 23.75  26.25 17.5 25  30 17.5 23.75  30 16.25 23.75  28.75 16.25 23.75  30 17.5 25  30 16.25 25  28.75 16.25 25  28.75 17.5 23.75  28.75 17.5 25  32.5 17.5 23.75  32.5 16.25 23.75  31.25 16.25 23.75  32.5 17.5 25  32.5 15 25  32.5 16.25 25  31.25 17.5 23.75  31.25 17.5 25  35 17.5 23.75  35 16.25 23.75  33.75 16.25 23.75  35 17.5 25  35 16.25 25  33.75 17.5 23.75  33.75 17.5 25  37.5 16.25 23.75  36.25 16.25 23.75  37.5 17.5 23.75  37.5 17.5 25  37.5 15 23.75  37.5 15 25  37.5 16.25 25  36.25 16.25 25  36.25 17.5 23.75  36.25 17.5 25  26.25 18.75 23.75  27.5 18.75 23.75  27.5 20 23.75  27.5 20 25  27.5 18.75 25  26.25 18.75 25  26.25 20 23.75  26.25 20 25  28.75 18.75 23.75  30 18.75 23.75  30 20 23.75  30 20 25  30 18.75 25  28.75 18.75 25  28.75 20 23.75  28.75 20 25  31.25 18.75 23.75  32.5 18.75 23.75  32.5 20 23.75  32.5 20 25  32.5 18.75 25  31.25 18.75 25  31.25 20 23.75  31.25 20 25  33.75 18.75 23.75  35 18.75 23.75  35 20 23.75  35 20 25  35 18.75 25  33.75 18.75 25  33.75 20 23.75  33.75 20 25  36.25 18.75 23.75  37.5 18.75 23.75  37.5 20 23.75  37.5 20 25  37.5 18.75 25  36.25 18.75 25  36.25 20 23.75  36.25 20 25  27.5 21.25 23.75  27.5 21.25 25  28.75 21.25 23.75  30 21.25 23.75  30 22.5 23.75  30 21.25 25  28.75 21.25 25  31.25 21.25 23.75  32.5 21.25 23.75  32.5 22.5 23.75  32.5 21.25 25  31.25 21.25 25  31.25 22.5 23.75  33.75 21.25 23.75  35 21.25 23.75  35 22.5 23.75  35 22.5 25  35 21.25 25  33.75 21.25 25  33.75 22.5 23.75  33.75 22.5 25  36.25 21.25 23.75  37.5 21.25 23.75  37.5 22.5 23.75  37.5 22.5 25  37.5 21.25 25  36.25 21.25 25  36.25 22.5 23.75  36.25 22.5 25  30 23.75 23.75  31.25 23.75 23.75  32.5 23.75 23.75  33.75 23.75 23.75  35 
[...]
<PointData  Scalars="p_CO2"> 
<DataArray  type="Float64"  Name="p_CO2"  format="ascii">4.5000000069194989e+01  4.5000000069050010e+01  4.5000000067539688e+01  4.5000000058772848e+01  4.5000000068397824e+01  4.5000000060176205e+01  4.5000000070699897e+01  4.5000000070880873e+01  4.5000000060955550e+01  4.5000000061961373e+01  4.5000000072261926e+01  4.5000000072132593e+01  4.5000000071438933e+01  4.5000000070140125e+01  4.5000000020003803e+01  4.5000000024077501e+01  4.5000000020990761e+01  4.5000000020972742e+01  4.5000000021985457e+01  4.5000000025418757e+01  4.5000000028678450e+01  4.5000000023026871e+01  4.5000000025915938e+01  4.5000000027483239e+01  4.5000000023655218e+01  4.5000000026227596e+01  4.5000000023062213e+01  4.5000000022450678e+01  4.5000000023924812e+01  4.5000000027430630e+01  4.5000000030583344e+01  4.5000000029609332e+01  4.5000000025250991e+01  4.5000000030390154e+01  4.5000000026093822e+01  4.5000000031751348e+01  4.5000000034619767e+01  4.5000000027383123e+01  4.5000000032411023e+01  4.5000000027939805e+01  4.5000000033628595e+01  4.5000000036466858e+01  4.5000000035592329e+01  4.5000000030491755e+01  4.5000000034463838e+01  4.5000000031369765e+01  4.5000000029988975e+01  4.5000000032021795e+01  4.5000000035616971e+01  4.5000000038498257e+01  4.5000000037839804e+01  4.5000000042100993e+01  4.5000000037686853e+01  4.5000000040534452e+01  4.5000000040437911e+01  4.5000000045797613e+01  4.5000000050949055e+01  4.5000000038508645e+01  4.5000000032886092e+01  4.5000000039755598e+01  4.5000000042857032e+01  4.5000000041837851e+01  4.5000000035794329e+01  4.5000000043003645e+01  4.5000000046762274e+01  4.5000000052430934e+01  4.5000000053260557e+01  4.5000000048266720e+01  4.5000000044393950e+01  4.5000000040743700e+01  4.5000000034953153e+01  4.5000000041801066e+01  4.5000000045131458e+01  4.5000000044143015e+01  4.5000000045373319e+01  4.5000000049295359e+01  4.5000000054805447e+01  4.5000000055943794e+01  4.5000000050676100e+01  4.5000000046765166e+01  4.5000000047900194e+01  4.5000000052328701e+01  4.5000000057526968e+01  4.5000000058557283e+01  4.5000000044314895e+01  4.5000000038263060e+01  4.5000000045481265e+01  4.5000000047904670e+01  4.5000000042966207e+01  4.5000000045273929e+01  4.5000000046931518e+01  4.5000000049724562e+01  4.5000000056062412e+01  4.5000000057229549e+01  4.5000000060643082e+01  4.5000000048566442e+01  4.5000000054430679e+01  4.5000000057494326e+01  4.5000000059268118e+01  4.5000000053076249e+01  4.5000000051449916e+01  4.5000000051636654e+01  4.5000000054738912e+01  4.5000000052913812e+01  4.5000000059056546e+01  4.5000000060276463e+01  4.5000000063971306e+01  4.5000000062759291e+01  4.5000000056530965e+01  4.5000000054877290e+01  4.5000000051426149e+01  4.5000000058003067e+01  4.5000000048605038e+01  4.5000000056359951e+01  4.5000000062138795e+01  4.5000000063378209e+01  4.5000000067242830e+01  4.5000000066143443e+01  4.5000000059250461e+01  4.5000000055930705e+01  4.5000000062387741e+01  4.5000000064409029e+01  4.5000000067119288e+01  4.5000000060565291e+01  4.5000000062795223e+01  4.5000000065324116e+01  4.5000000058819460e+01  4.5000000057858031e+01  4.5000000059311368e+01  4.5000000066381951e+01  4.5000000067795249e+01  4.5000000070222967e+01  4.5000000068907617e+01  4.5000000060478925e+01  4.5000000061499144e+01  4.5000000069122287e+01  4.5000000070683996e+01  4.5000000073092295e+01  4.5000000072107738e+01  4.5000000067254220e+01  4.5000000060375136e+01  4.5000000069242851e+01  4.5000000070608564e+01  4.5000000065076406e+01  4.5000000066759455e+01  4.5000000068855265e+01  4.5000000052681969e+01  4.5000000061362300e+01  4.5000000059743996e+01  4.5000000060544856e+01  4.5000000059135303e+01  4.5000000068472836e+01  4.5000000061580707e+01  4.5000000069825184e+01  4.5000000072004298e+01  4.5000000046472373e+01  4.5000000047176052e+01  4.5000000053067652e+01  4.5000000039929255e+01  4.5000000049310401e+01  4.5000000043902361e+01  4.5000000050177704e+01  4.5000000054140081e+01  4.5000000059923131e+01  4.5000000060321817e+01  4.5000000057317656e+01  4.5000000057351961e+01  4.5000000064246045e+01  4.5000000064392601e+01  4.5000000067646937e+01  4.5000000067665646e+01  4.5000000057458436e+01  4.5000000064522595e+01  4.5000000060980256e+01  4.5000000056927320e+01  4.5000000060084325e+01  4.5000000067568720e+01  4.5000000077655464e+01  4.5000000071119686e+01  4.5000000079803293e+01  4.5000000072321193e+01  4.5000000073576416e+01  4.5000000081183963e+01  4.5000000089522523e+01  4.5000000080888739e+01  4.5000000082676813e+01  4.5000000091482320e+01  4.5000000092593652e+01  4.5000000072941056e+01  4.5000000081824915e+01  4.5000000073801026e+01  4.5000000074268655e+01  4.5000000084020009e+01  4.5000000074027746e+01  4.5000000084154422e+01  4.5000000093318917e+01  4.5000000095165177e+01  4.5000000096020990e+01  4.5000000085910919e+01  4.5000000076514212e+01  4.5000000086329763e+01  4.5000000102963199e+01  4.5000000101662650e+01  4.5000000104844986e+01  4.5000000103670310e+01  4.5000000114433341e+01  4.5000000116315974e+01  4.5000000116914855e+01  4.5000000106462181e+01  4.5000000081874980e+01  4.5000000083503245e+01  4.5000000093238050e+01  4.5000000093078185e+01  4.5000000073110101e+01  4.5000000082136630e+01  4.5000000072614107e+01  4.5000000073503244e+01  4.5000000083554951e+01  4.5000000074345373e+01  4.5000000085242348e+01  4.5000000094929902e+01  4.5000000096046016e+01  4.5000000095081020e+01  4.5000000094613384e+01  4.5000000085485411e+01  4.5000000085976602e+01  4.5000000074007787e+01  4.5000000085680782e+01  4.5000000105119483e+01  4.5000000117926731e+01  4.5000000117612799e+01  4.5000000115918034e+01  4.5000000104248620e+01  4.5000000116509426e+01  4.5000000116262996e+01  4.5000000117579098e+01  4.5000000104983421e+01  4.5000000104412102e+01  4.5000000106342412e+01  4.5000000105806613e+01  4.5000000130758139e+01  4.5000000129964143e+01  4.5000000128348148e+01  4.5000000142235763e+01  4.5000000145961110e+01  4.5000000144901598e+01  4.5000000144480921e+01  4.5000000130526587e+01  4.5000000144385965e+01  4.5000000144247785e+01  4.5000000145177793e+01  4.5000000130146965e+01  4.5000000130095849e+01  4.5000000130622141e+01  4.5000000160200109e+01  4.5000000159693222e+01  4.5000000160230300e+01  4.5000000159802539e+01  4.5000000176817750e+01  4.5000000085277257e+01  4.5000000086395040e+01  4.5000000081081431e+01  4.5000000080805172e+01  4.5000000090028720e+01  4.5000000090578808e+01  4.5000000091993336e+01  4.5000000092633506e+01  4.5000000082612296e+01  4.5000000099964595e+01  4.5000000103146114e+01  4.5000000084239133e+01  4.5000000094542244e+01  4.5000000104044879e+01  4.5000000115982139e+01  4.5000000127273942e+01  4.5000000157653133e+01  4.5000000071674435e+01  4.5000000080568043e+01  4.5000000075692626e+01  4.5000000070740981e+01  4.5000000089200469e+01  4.5000000085273541e+01  4.5000000079098584e+01  4.5000000094638942e+01  4.5000000099786121e+01  4.5000000076111306e+01  4.5000000079823010e+01  4.5000000090175959e+01  4.5000000110225557e+01  4.5000000130425910e+01  4.5000000117132899e+01  4.5000000123952219e+01  4.5000000123083161e+01  4.5000000137190220e+01  4.5000000151523508e+01  4.5000000080174622e+01  4.5000000072120912e+01  4.5000000084667597e+01  4.5000000087078334e+01  4.5000000076333549e+01  4.5000000071448355e+01  4.5000000079499650e+01  4.5000000088286782e+01  4.5000000099093853e+01  4.5000000104253409e+01  4.5000000107183951e+01  4.5000000093686957e+01  4.5000000097273222e+01  4.5000000122516497e+01  4.5000000109434666e+01  4.5000000129759016e+01  4.5000000132721880e+01  4.5000000116029888e+01  4.5000000112214117e+01  4.5000000120147611e+01  4.5000000134501100e+01  4.5000000144140280e+01  4.5000000158677935e+01  4.5000000162927257e+01  4.5000000148462142e+01  4.5000000067417112e+01  4.5000000064357387e+01  4.5000000064946477e+01  4.5000000075230837e+01  4.5000000077516106e+01  4.5000000070123022e+01  4.5000000067732351e+01  4.5000000089126111e+01  4.5000000079646348e+01  4.5000000091808133e+01  4.5000000095560289e+01  4.5000000092720775e+01  4.5000000083364853e+01  4.5000000083133109e+01  4.5000000086329493e+01  4.5000000098172634e+01  4.5000000110115053e+01  4.5000000113337038e+01  4.5000000118374047e+01  4.5000000115224957e+01  4.5000000103295235e+01  4.5000000101781133e+01  4.5000000106869336e+01  4.5000000122079612e+01  4.5000000136691526e+01  4.5000000140705758e+01  4.5000000146465815e+01  4.5000000142275340e+01  4.5000000127913218e+01  4.5000000126118508e+01  4.5000000132364683e+01  4.5000000151094049e+01  4.5000000167015642e+01  4.5000000172809628e+01  4.5000000180014382e+01  4.5000000158146982e+01  4.5000000164613091e+01  4.5000000174483162e+01  4.5000000157741624e+01  4.5000000156580079e+01  4.5000000163963300e+01  4.5000000068792858e+01  4.5000000076864083e+01  4.5000000079490135e+01  4.5000000081156401e+01  4.5000000071741297e+01  4.5000000074173620e+01  4.5000000084650900e+01  4.5000000094700091e+01  4.5000000098421587e+01  4.5000000100099633e+01  4.5000000088238473e+01  4.5000000090716448e+01  4.5000000104261673e+01  4.5000000116976615e+01  4.5000000121934676e+01  4.5000000124070318e+01  4.5000000109198567e+01  4.5000000112317487e+01  4.5000000129110816e+01  4.5000000144757507e+01  4.5000000150569186e+01  4.5000000153765157e+01  4.5000000135333693e+01  4.5000000139336578e+01  4.5000000159444781e+01  4.5000000177718917e+01  4.5000000185480502e+01  4.5000000189501897e+01  4.5000000167336481e+01  4.5000000172116479e+01  4.5000000079814271e+01  4.5000000077667806e+01  4.5000000069929762e+01  4.5000000081924640e+01  4.5000000074968511e+01  4.5000000080042334e+01  4.5000000072479168e+01  4.5000000071917341e+01  4.5000000074461092e+01  4.5000000099312544e+01  4.5000000096847010e+01  4.5000000086527834e+01  4.5000000102203977e+01  4.5000000099417726e+01  4.5000000089333334e+01  4.5000000088808569e+01  4.5000000091992568e+01  4.5000000123232546e+01  4.5000000120364177e+01  4.5000000107280549e+01  4.5000000126504730e+01  4.5000000123542478e+01  4.5000000111131158e+01  4.5000000110559867e+01  4.5000000114501695e+01  4.5000000152324226e+01  4.5000000148541602e+01  4.5000000132414243e+01  4.5000000156916911e+01  4.5000000152583731e+01  4.5000000136853018e+01  4.5000000137146195e+01  4.5000000141885614e+01  4.5000000182218720e+01  4.5000000164582836e+01  4.5000000190264949e+01  4.5000000198156947e+01  4.5000000172324675e+01  4.5000000178161251e+01  4.5000000188832729e+01  4.5000000170297668e+01  4.5000000170101110e+01  4.5000000177225843e+01  4.5000000073720905e+01  4.5000000081974932e+01  4.5000000083940691e+01  4.5000000086053177e+01  4.5000000084254978e+01  4.5000000075892373e+01  4.5000000076156660e+01  4.5000000078406956e+01  4.5000000090737110e+01  4.5000000101849352e+01  4.5000000103879735e+01  4.5000000106565750e+01  4.5000000105048656e+01  4.5000000093757528e+01  4.5000000093275446e+01  4.5000000096403774e+01  4.5000000112719199e+01  4.5000000126653333e+01  4.5000000128978414e+01  4.5000000132543413e+01  4.5000000130136762e+01  4.5000000116783291e+01  4.5000000115746118e+01  4.5000000119741479e+01  4.5000000139996580e+01  4.5000000157169147e+01  4.5000000160113125e+01  4.5000000164823973e+01  4.5000000162141589e+01  4.5000000144937317e+01  4.5000000144301900e+01  4.5000000148918893e+01  4.5000000173410726e+01  4.5000000193984739e+01  4.5000000197944793e+01  4.5000000205121601e+01  4.5000000202370465e+01  4.5000000180373320e+01  4.5000000178236817e+01  4.5000000184849910e+01  4.5000000086101579e+01  4.5000000088381469e+01  4.5000000094984230e+01  4.5000000106423514e+01  4.5000000108943368e+01  4.5000000110440105e+01  4.5000000097805049e+01  4.5000000100073862e+01  4.5000000117647126e+01  4.5000000132323017e+01  4.5000000135755464e+01  4.5000000137381704e+01  4.5000000121307423e+01  4.5000000124026691e+01  4.5000000146506302e+01  4.5000000164544382e+01  4.5000000168505387e+01  4.5000000170917197e+01  4.5000000151002325e+01  4.5000000153897098e+01  4.5000000181726790e+01  4.5000000203202433e+01  4.5000000209829906e+01  4.5000000212494413e+01  4.5000000188367970e+01  4.5000000192869301e+01  4.5000000082276742e+01  4.5000000073937763e+01  4.5000000084135642e+01  4.5000000085349797e+01  4.5000000079381266e+01  4.5000000083186016e+01  4.5000000074989472e+01  4.5000000075780079e+01  4.5000000077454452e+01  4.5000000105242442e+01  4.5000000102882247e+01  4.5000000091322150e+01  4.5000000106124155e+01  4.5000000102687302e+01  4.5000000092309030e+01  4.5000000094488634e+01  4.5000000096106746e+01  4.5000000130677925e+01  4.5000000127772765e+01  4.5000000114027557e+01  4.5000000130973376e+01  4.5000000120615326e+01  4.5000000126498811e+01  4.5000000117352585e+01  4.5000000117888675e+01  4.5000000161731883e+01  4.5000000158145255e+01  4.5000000140994331e+01  4.5000000163618850e+01  4.5000000158379329e+01  4.5000000144957291e+01  4.5000000147332720e+01  4.5000000194210863e+01  4.5000000174267804e+01  4.5000000203658068e+01  4.5000000205273864e+01  4.5000000183272306e+01  4.5000000185180596e+01  4.5000000197465425e+01  4.5000000176740173e+01  4.5000000180432345e+01  4.5000000184651576e+01  4.5000000077222829e+01  4.5000000086615131e+01  4.5000000088125638e+01  4.5000000089246093e+01  4.5000000087814364e+01  4.5000000078631601e+01  4.5000000079459880e+01  4.5000000080863622e+01  4.5000000095978557e+01  4.5000000108172728e+01  4.5000000109642222e+01  4.5000000111999363e+01  4.5000000109749251e+01  4.5000000098221641e+01  4.5000000098537548e+01  4.5000000100172755e+01  4.5000000119649442e+01  4.5000000134021597e+01  4.5000000136976759e+01  4.5000000139326346e+01  4.5000000136495039e+01  4.5000000121666034e+01  4.5000000122384129e+01  4.5000000125442988e+01  4.5000000148267965e+01  4.5000000167049294e+01  4.5000000170991541e+01  4.5000000174702691e+01  4.5000000169883656e+01  4.5000000151576003e+01  4.5000000152933637e+01  4.5000000156127882e+01  4.5000000185130069e+01  4.5000000210365179e+01  4.5000000214969035e+01  4.5000000220958022e+01  4.5000000214703320e+01  4.5000000189916442e+01  4.5000000190500607e+01  4.5000000197197366e+01  4.5000000090281596e+01  4.5000000091451753e+01  4.5000000099540706e+01  4.5000000111430801e+01  4.5000000113020207e+01  4.5000000113323651e+01  4.5000000101406933e+01  4.5000000123659561e+01  4.5000000138667140e+01  4.5000000140259957e+01  4.5000000142001156e+01  4.5000000127122625e+01  4.5000000125877222e+01  4.5000000153976970e+01  4.5000000172980783e+01  4.5000000174755030e+01  4.5000000176232170e+01  4.5000000176816222e+01  4.5000000157854231e+01  4.5000000156437295e+01  4.5000000158851044e+01  4.5000000192630147e+01  4.5000000217506255e+01  4.5000000219053867e+01  4.5000000220564424e+01  4.5000000222539335e+01  4.5000000197952517e+01  4.5000000196496430e+01  4.5000000199242464e+01  4.5000000115103795e+01  4.5000000127221810e+01  4.5000000142649107e+01  4.5000000157745404e+01  4.5000000177932549e+01  4.5000000177574087e+01  4.5000000174223068e+01  4.5000000159539063e+01  4.5000000160087886e+01  4.5000000197381908e+01  4.5000000219327575e+01  4.5000000197815297e+01  4.5000000082677069e+01  4.5000000075163818e+01  4.5000000077623660e+01  4.5000000090753808e+01  4.5000000094454940e+01  4.5000000079049556e+01  4.5000000088568740e+01  4.5000000090582411e+01  4.5000000080873612e+01  4.5000000097573555e+01  4.5000000100672310e+01  4.5000000112398958e+01  4.5000000109814572e+01  4.5000000100417417e+01  4.5000000092021288e+01  4.5000000101980469e+01  4.5000000115320390e+01  4.5000000113781780e+01  4.5000000102350185e+01  4.5000000127578872e+01  4.5000000142031347e+01  4.5000000157415442e+01  4.5000000177177107e+01  4.5000000177528612e+01  4.5000000199092476e+01  4.5000000223041866e+01  4.5000000220710660e+01  4.5000000217269239e+01  4.5000000198862502e+01  4.5000000197422544e+01  4.5000000197084113e+01  4.5000000177075648e+01  4.5000000196101212e+01  4.5000000192489118e+01  4.5000000118955548e+01  4.5000000139995208e+01  4.5000000130284207e+01  4.5000000126832553e+01  4.5000000119207392e+01  4.5000000137735690e+01  4.5000000150240965e+01  4.5000000173517705e+01  4.5000000166228794e+01  4.5000000164803012e+01  4.5000000178758121e+01  4.5000000186909745e+01  4.5000000192523110e+01  4.5000000181611817e+01  4.5000000170605205e+01  4.5000000182200850e+01  4.5000000190305371e+01  4.5000000199627543e+01  4.5000000212555079e+01  4.5000000191984810e+01  4.5000000196356559e+01  4.5000000205402650e+01  4.5000000211551516e+01  4.5000000231910910e+01  4.5000000188449000e+01  4.5000000174981679e+01  4.5000000198901866e+01  4.5000000209073292e+01  4.5000000207559054e+01  4.5000000213999400e+01  4.5000000218880125e+01  4.5000000241256622e+01  4.5000000249713338e+01  4.5000000224711265e+01  4.5000000228850759e+01  4.5000000222753805e+01  4.5000000245122983e+01  4.5000000256358355e+01  4.5000000259643201e+01  4.5000000233336522e+01  4.5000000237427422e+01  4.5000000264232142e+01  4.5000000213661096e+01  4.5000000225295857e+01  4.5000000232248723e+01  4.5000000237039266e+01  4.5000000240148708e+01  4.5000000246167247e+01  4.5000000245953409e+01  4.5000000266052901e+01  4.5000000267138283e+01  4.5000000260081208e+01  4.5000000240765800e+01  4.5000000241508097e+01  4.5000000238509919e+01  4.5000000246025607e+01  4.5000000001241560e+01  4.5000000006650886e+01  4.5000000001389147e+01  4.5000000005966427e+01  4.5000000001261810e+01  4.5000000001463285e+01  4.5000000007086527e+01  4.5000000012737246e+01  4.5000000001219959e+01  4.5000000006448509e+01  4.5000000001342784e+01  4.5000000005850765e+01  4.5000000010330950e+01  4.5000000011463094e+01  4.5000000001512028e+01  4.5000000008120615e+01  4.5000000001672149e+01  4.5000000007313709e+01  4.5000000001539625e+01  4.5000000001752198e+01  4.5000000008512565e+01  4.5000000015269606e+01  4.5000000014481763e+01  4.5000000013181015e+01  4.5000000007749890e+01  4.5000000001609642e+01  4.5000000013947556e+01  4.5000000001897675e+01  4.5000000009904504e+01  4.5000000002048438e+01  4.5000000008938173e+01  4.5000000001861771e+01  4.5000000002117318e+01  4.5000000010292325e+01  4.5000000018393720e+01  4.5000000017452500e+01  4.5000000015975047e+01  4.5000000009429122e+01  4.5000000001956039e+01  4.5000000016904281e+01  4.5000000002238586e+01  4.5000000011484836e+01  4.5000000002384176e+01  4.5000000010690108e+01  4.5000000002285539e+01  4.5000000002491468e+01  4.5000000012067140e+01  4.5000000021557426e+01  4.5000000010649863e+01  4.5000000018868377e+01  4.5000000020475987e+01  4.5000000019000055e+01  4.5000000011251224e+01  4.5000000002340933e+01  4.5000000020067944e+01  4.5000000000784510e+01  4.5000000004534186e+01  4.5000000000961975e+01  4.5000000000867153e+01  4.5000000000975319e+01  4.5000000005096588e+01  4.5000000001045890e+01  4.5000000001064407e+01  4.5000000005246520e+01  4.5000000009305893e+01  4.5000000008395048e+01  4.5000000008927046e+01  4.5000000008091298e+01  4.5000000000861874e+01  4.5000000000870671e+01  4.5000000004747186e+01  4.5000000000997829e+01  4.5000000007432092e+01  4.5000000008433489e+01  4.5000000006197673e+01  4.5000000001284093e+01  4.5000000005641446e+01  4.5000000001187558e+01  4.5000000001321624e+01  4.5000000006431684e+01  4.5000000011387066e+01  4.5000000010923387e+01  4.5000000009889455e+01  4.5000000009360598e+01  4.5000000005922267e+01  4.5000000001227463e+01  4.5000000010368225e+01  4.5000000006782798e+01  4.5000000001455305e+01  4.5000000007476793e+01  4.5000000001553566e+01  4.5000000001602309e+01  4.5000000007754508e+01  4.5000000013860458e+01  4.5000000013365934e+01  4.5000000012172066e+01  4.5000000007116924e+01  4.5000000001484253e+01  4.5000000012629350e+01  4.5000000008121518e+01  4.5000000001676995e+01  4.5000000008932517e+01  4.5000000001845955e+01  4.5000000001915893e+01  4.5000000009316217e+01  4.5000000016716513e+01  4.5000000016110278e+01  4.5000000014597624e+01  4.5000000008473577e+01  4.5000000001764867e+01  4.5000000015272924e+01  4.5000000009831957e+01  4.5000000002104599e+01  4.5000000010806346e+01  4.5000000002253579e+01  4.5000000002310266e+01  4.500000001120717