<?xml version="1.0"?>
<VTKFile type="UnstructuredGrid"  version="0.1"  >
<UnstructuredGrid>
<Piece  NumberOfPoints="13427" NumberOfCells="62951">
<Points>
<DataArray  type="Float64"  NumberOfComponents="3"  format="ascii">32.22360253949989 7.987175412869323 6.327768485600236  32.47902000783863 8.320170758252099 6.53851994934417  32.1773911745351 8.433664534437591 6.734848340776803  32.19728100607807 8.087290976393158 7.018703779009225  32.73443747617738 8.653166103634874 6.749271413088104  32.17095947265625 8.187406539916992 7.709639072418213  32.47087093535373 8.06551652654721 7.028378543494322  32.18913193359317 7.832636744688269 7.508562373159377  32.76733262115235 7.995899376424371 7.491965420102259  33.36370576964844 7.80439221293175 7.274291767786305  32.78550508208927 7.641129581195647 7.290888720843423  32.20730439453009 7.477866949459545 7.30748567390054  32.215453467015 7.732521181164435 6.817627079750388  32.20856678793842 8.701781008589203 6.427831252840401  34.6325798034668 8.725719451904297 1.396867990493774  34.26408933617391 8.678471055739246 1.039614086913943  34.32450460411825 8.961103406660877 1.33442658739078  34.25298661352375 8.51165389028754 1.045251903960059  34.57216453552246 8.443087100982666 1.102055490016937  34.51174926757812 8.160454750061035 0.8072429895401001  34.19257134557941 8.22902153936591 0.7504394034832217  33.87339342358069 8.297588328670782 0.6936358174263433  33.94491141417519 8.747037845044119 0.9828105008570641  34.0164294047697 9.196487361417457 1.271985184287785  34.1578483581543 8.065163612365723 1.621816039085388  34.087138881462 8.63082548689159 1.446900611686587  34.0156208908675 8.181375970518253 1.157725928255866  34.39521408081055 8.39544153213501 1.509342014789581  32.69836776640949 8.704271866352617 6.142340047129927  32.44295029807076 8.37127652096984 5.931588583385993  32.66229805664161 8.755377629070358 5.53540868117175  33.44121276717325 7.962491947581078 6.319208115823568  33.40514305740537 8.013597710298821 5.712276749865392  33.18579529883451 7.629496602198303 6.108456652079635  34.14798805816913 7.271817791527283 5.889144818559033  32.59018250122013 7.613928467939612 7.833778904912917  34.39535140991211 9.176068305969238 0.1048400029540062  34.2058904073409 9.186277833693348 0.6884125936208956  34.1343724167464 8.736828317320011 0.3992379101901747  34.45355033874512 8.668261528015137 0.4560414962470531  34.51396560668945 8.950893878936768 0.7508539967238903  32.79365415457417 7.895783812900537 6.80103012669327  34.33479881286621 8.112809181213379 1.214529514312744  34.92726516723633 8.623353958129883 0.8929289877414703  34.98768043518066 8.905986309051514 1.187741488218307  34.86906623840332 9.131160736083984 0.5417274944484234  35.34278106689453 9.08625316619873 0.9786149859428406  21.03409957885742 8.78461742401123 10.55300998687744  21.69843197251493 8.691078328520021 10.58558908821695  21.20162487030029 8.477824687957764 10.33292484283447  21.16788005828857 8.342902183532715 10.70046520233154  21.30166053771973 7.901186943054199 10.84792041778564  21.83221245194608 8.249363088041505 10.73304430367105  21.33540534973145 8.036109447479248 10.48038005828857  21.36915016174316 8.171031951904297 10.1128396987915  21.8659572639578 8.384285592466554 10.36550394417398  22.36276436617244 8.597539233028813 10.61816818955646  21.00355911254883 2.595230102539062 1.628700971603394  20.92608557205494 3.143677365511607 1.280127449302755  21.04000473022461 2.673647046089172 1.175121992826462  20.68265914916992 2.735040545463562 1.295067489147186  20.36175918579102 2.874850988388062 0.961434006690979  20.96253118973073 3.222094309061717 0.8265484705258234  20.60518560867604 3.283487808436107 0.9464939668465479  20.7191047668457 2.813457489013672 0.8414885103702545  21.07645034790039 2.752063989639282 0.72154301404953  20.84861203156106 3.692124628484151 0.9315539270021167  21.9540901184082 2.000858068466187 1.894482016563416  22.2166173580376 2.047263554145754 1.103417428027845  22.37270714075244 2.055153599788607 1.522800953876233  21.95602572706215 2.487305944918238 1.542033672851332  21.79800033569336 1.992968022823334 1.475098490715027  21.64191055297852 1.985077977180481 1.055714964866638  22.37464274940639 2.541601476240659 1.170352610164149  21.79993594434731 2.479415899275386 1.122650147002943  21.9579613357161 2.97375382137029 1.189585329139248  22.79132416309668 2.109449131111028 1.151119891189051  30.15699005126953 6.171529769897461 1.042019009590149  30.19187086922878 6.947148783711171 1.224238525604145  29.97421153999711 6.799382792124219 0.9095689798347172  30.41346750847595 6.514499027188792 0.9445114579989207  29.93539341202236 6.60417952641984 1.321746077195373  29.71379677277519 7.036829282942218 1.601473144800597  29.75261490074995 7.232032548646598 1.189296047439941  30.66994496568236 6.857468284480124 0.8470039064076924  30.23068899720353 7.142352049415551 0.8120614282434889  29.7914330287247 7.427235814350977 0.7771189500792854  35.53961181640625 4.073735237121582 7.413384914398193  34.66981427020256 4.504645403982206 7.657913198802807  34.92393843650509 4.203680656502712 7.083262982800843  34.96071021079708 3.991989276955593 7.389957013562562  35.50284004211426 4.285426616668701 7.106690883636475  35.21194410151974 4.798082743695314 7.374647068876719  35.46606826782227 4.49711799621582 6.799996852874756  34.38180860518791 3.910243316789603 7.366529112726931  18.67819976806641 2.324219942092896 4.370869159698486  19.20336640462553 2.058230100852061 4.264466174671879  18.91268679961417 1.632258844479947 4.507272154460332  18.9087341495871 1.698682579515252 3.950135547464615  19.1392685311078 1.073145216937609 3.529401935230745  19.43785343617329 1.366269003239112 4.400869169433725  19.43390078614622 1.432692738274417 3.843732562438008  19.14322118113486 1.006721481902303 4.086538542226461  19.14717383116193 0.9402977468669977 4.643675149222178  19.72853304118464 1.792240259611226 4.158063189645272  31.83727073669434 5.94587516784668 9.903904914855957  31.80095460203334 4.917285718528886 9.805437864395294  31.88179526190238 5.592696275269144 9.508146875300286  31.47337588257482 5.73966836794555 9.749411008988185  31.7564300768253 5.270464611106421 10.20119590395097  31.10948102845531 5.533461568044419 9.594917103120412  31.51790040778287 5.386489475368014 9.353652969432513  31.39253522270578 5.064257811205291 10.04670199808319  31.67558941695626 4.595054054366163 10.49848689304597  31.92631978711043 5.239517382691608 9.112388835744614  20.00333976745605 14.0985803604126 3.970668077468872  20.47743029158058 13.68887254995933 3.398753882565653  20.55264086286964 13.66827747625938 3.861320377507364  20.49095530073586 14.06421253485313 3.719080926098978  19.98981475830078 13.7232403755188 3.650341033935547  20.06502532958984 13.70264530181885 4.112907528877258  20.12671089172363 13.3067102432251 4.255146980285645  20.05150032043457 13.32730531692505 3.792580485343933  19.97628974914551 13.347900390625 3.330013990402222  20.97857083401565 14.02984470929367 3.467493774729083  29.75470075791016 8.598431516861204 1.322980872051198  30.06714893555393 8.63638926845141 2.330886720141523  29.65537917915002 8.315080225449282 1.834347476450712  29.76529804247252 8.861228610347506 2.07710591612001  30.16647051431407 8.919740559863333 1.819520115742009  30.57824027071799 9.241049602865463 2.31605935943282  30.17706779887643 9.182537653349634 2.573645159810821  29.77589532703487 9.124025703833807 2.831230960188823  29.66597646371238 8.577877318935583 2.588472520519525  29.55605760038988 8.031728934037359 2.345714080850227  24.6813793182373 0.09558500349521637 9.153931617736816  24.57677021277163 0.7080630995046268 8.948026842842307  24.67454089951827 0.796448928216952 9.26347158555841  24.3655600407873 0.4041861288708946 9.106581728506374  24.89258949022164 0.3994619741289486 8.995376732072749  24.46333072753394 0.4925719575832199 9.422026471222477  24.24528213683056 0.8895589116712234 9.690121324708137  24.14751145008393 0.8011730829588981 9.374676581992034  25.10379966220598 0.7033389447626808 8.836821846408681  24.04974076333729 0.7127872542465727 9.059231839275931  21.83608055114746 2.473937034606934 0.1048400029540062  22.31370235712207 2.291693082858981 0.6279799470715285  22.3547251349332 2.674115214266024 0.4564653668686628  22.32083511352539 2.398777484893799 0.1048400029540062  22.80558967590332 2.323617935180664 0.1048400029540062  22.7984569195 2.216533533145846 0.6279799470715285  22.83947969731113 2.598955664552889 0.4564653668686628  22.87336971871895 2.874293393925115 0.8080907307833194  22.83234694090781 2.491871262518071 0.9796053109861851  24.49600028991699 1.643203973770142 0.6151660084724426  24.48814010620117 0.875525027513504 0.5454219989478588  24.35653018951416 1.261210501194 0.3600030057132244  24.33347034454346 1.073728978633881 0.8463614881038666  24.627610206604 1.257518500089645 0.800585001707077  24.75922012329102 0.8718330264091492 0.9860039949417114  24.19400024414062 0.6917355060577393 0.5911984853446484  24.46508026123047 0.6880435049533844 1.031780481338501  24.17094039916992 0.5042539834976196 1.077556967735291  24.21706008911133 0.8792170286178589 0.1048400029540062  20.04292789381959 13.95553186029079 10.72307908226891  20.77918998493439 13.63314924880411 10.25722767693153  21.10694366038742 13.81950581684904 10.67361283083627  20.52093044567484 14.0810309959321 10.14489765382663  20.30118743307914 13.50765011316279 10.83540910537381  20.84868412112787 14.26738756397704 10.56128280773136  21.65444034843614 14.57924326766328 10.39948653319382  21.32668667298312 14.39288669961835 9.983101379289087  20.55944697233869 13.0597683660348 10.94773912847871  20.99893299753009 14.20653013157342 9.566716225384351  25.34629970724916 5.078290154608209 6.113070574674821  25.97271758285183 5.751780692508977 5.813270441517655  25.61544072172105 5.630893723180732 6.219923276567757  26.03297203300387 5.280076748713585 6.198216262041317 
[...]
<PointData  Vectors="u"> 
<DataArray  type="Float64"  Name="u"  NumberOfComponents="3" format="ascii">1.9316504893289286e+02 1.0807497157813708e+02 -6.4243293894770979e+00  1.9431315487480194e+02 1.2119168218840915e+02 -1.0709406593426549e+00  2.0030047566104685e+02 1.2579331381212955e+02 -5.5361644136963255e+00  2.0635059663526951e+02 1.2077122728823014e+02 -1.0132033745610508e+01  1.9550640865982385e+02 1.2912937865396020e+02 1.9060233334136540e+00  2.2883044980975876e+02 1.3715612030047478e+02 -1.0215538321038412e+01  1.9989671396772121e+02 1.1960053014795514e+02 -5.0896681665305961e+00  2.2265359004823767e+02 1.1886493924518962e+02 -1.6957220970666125e+01  2.0390016695111913e+02 1.2413303016290317e+02 1.4291005974264626e+00  1.8406330031656378e+02 1.2666683480772768e+02 1.2432752765087674e+01  1.9542349309428928e+02 1.1478430403164730e+02 -1.6377526009189505e+00  2.1086486057917503e+02 1.0106272590305075e+02 -2.1225180490829114e+01  2.0007287753485085e+02 1.0523067904013102e+02 -1.3400983181340342e+01  1.9577156111121909e+02 1.2923628138912150e+02 -1.3885983400386921e+00  2.3628594790225463e+02 2.4521069890102552e+02 7.7871467846522586e+00  1.8163403177410885e+02 2.1316740950073640e+02 8.6265517579592821e+00  2.1133723256434371e+02 2.0677127389846510e+02 5.4093739436938257e+00  1.6711710376671775e+02 2.2584156199703622e+02 9.3004107372056470e+00  2.2346874500062773e+02 2.5096499393027727e+02 4.8949846042173623e-01  1.3458110344094663e+02 2.8603268052894435e+02 3.7277447034906061e+01  1.0353430609311459e+02 2.2763228798603245e+02 2.3519381193705804e+01  1.1748009635518791e+02 1.8089918727846850e+02 1.2432655746494726e+01  1.6845720981361362e+02 1.8516450510830495e+02 9.7895679484948097e+00  1.9969580381480574e+02 1.7712554660828556e+02 5.7501799391673849e+00  7.5380734550816200e+01 2.1061341642718671e+02 -6.2612447864800291e-01  1.5626456732164883e+02 2.0532966373711392e+02 3.2817954518904497e+00  1.0462672755021298e+02 1.9579507281379003e+02 5.1173391751955579e+00  1.4631561843918544e+02 2.4874633927319471e+02 -1.3314198059078631e+01  1.8944657935806282e+02 1.2944868995920024e+02 4.3062868884519885e+00  1.8803419271981275e+02 1.1827941803304304e+02 1.4695038977556125e+00  1.8443295200133207e+02 1.2974693174815269e+02 7.3673732639669227e+00  1.6752903193526026e+02 1.2609050004233245e+02 1.2325690537914419e+01  1.5920464386562031e+02 1.2508365594744389e+02 1.3285737176958344e+01  1.6302253302206486e+02 1.1290590654411011e+02 7.1727614774854480e+00  1.2859983799261656e+02 1.2454568764336041e+02 2.1427412487887889e+01  2.1487979105868948e+02 1.1864912417518462e+02 -3.3278945388238510e+00  2.2211715093806367e+02 2.2089380596419858e+02 5.8930594334654209e+00  2.0918299088978003e+02 1.9418807183892568e+02 1.0861499402311184e+01  1.4575373412016324e+02 2.1555162179115726e+02 2.2859357251320169e+01  1.8045187954997789e+02 2.4598341119154276e+02 4.9865046840894848e+01  2.1203944666290661e+02 2.2523647313490207e+02 2.6726373134634656e+01  1.8739940613729081e+02 1.1677199779555392e+02 2.8848196050198827e-01  8.2126497777346984e+01 2.7461267788084274e+02 -2.4963559272029907e+00  2.1855403556282127e+02 2.6707520822241923e+02 5.3006563922178792e+01  2.8186248469173825e+02 2.7132003064291865e+02 3.7432116659551582e+01  2.7913023317798741e+02 2.6591958918641154e+02 9.4207127107748807e+00  3.9257274597601008e+02 1.6493965878496385e+02 -8.2831843484080103e+00  1.3774699432208397e+01 -2.7262307778187637e+01 -9.4559269277839590e+01  5.5163324545693783e+01 -3.5150415566066030e+01 -9.3648989716400081e+01  2.8786610135096016e+01 -3.9749385913220330e+01 -1.0854917698140652e+02  3.5424297967323533e+01 -1.2165707720227983e+01 -1.2544179536858650e+02  6.6422985432611043e+01 2.7355560879585212e+01 -1.4888718903370940e+02  6.7888608999337677e+01 -1.4410804217145298e+01 -1.1526686033920916e+02  4.4691904135183734e+01 -7.9930506663855967e+00 -1.3888254738967595e+02  4.3166672156012091e+01 -5.2271912502396816e+01 -1.2715893342365818e+02  6.1686443438772990e+01 -4.0898251854615253e+01 -1.0757337648772189e+02  7.9502376416844399e+01 -3.4477294107741756e+01 -8.7331432475545412e+01  3.6427814058563587e+02 -8.8324463460975664e+01 -7.7434312553291960e+01  2.9670191570459087e+02 1.0986771820712386e+01 -3.5867510839843803e+01  3.0782501407698066e+02 -1.7064440965949697e+02 -6.9852437990847676e+01  4.4570650624798981e+02 -2.4293520291895973e+01 -9.0562813332583559e+01  5.2004487366820342e+02 1.3618521393761100e+02 -2.4234827074178941e+01  2.6366488888541511e+02 -7.1551257366156387e+00 -2.4635245678564306e+01  3.3444225921462220e+02 5.5366188820977236e+01 -3.8536144206048746e+01  3.5985047696034235e+02 -9.1666589921718781e+01 -9.9918611546718239e+01  2.4851130277303830e+02 -1.2728555657261116e+02 -5.9386439520185675e+01  2.4095588234137287e+02 7.2382450170038624e+01 -9.9504088547490230e+00  9.8796088700468232e+01 -8.4743278022615897e+01 2.7118697561649325e+00  8.2495438701195482e+01 -5.3751329903960965e+01 -2.3468598470719231e+00  8.3280738036503365e+01 -5.0517375933180077e+01 1.7062950051014063e+00  1.2481345593673508e+02 -5.6325016850393368e+01 -5.7598973236664150e+00  1.0414126764305115e+02 -9.3450406385180798e+01 -4.8035343108850856e+00  9.6510105640231743e+01 -8.7552716611309251e+01 -2.0533271238183435e+01  1.0397634474868359e+02 -3.2240063670649427e+01 -4.0692233808470144e+00  1.1890449873252609e+02 -6.5054627034064865e+01 -1.8457879158518548e+01  1.4703023056034667e+02 -2.4833898306612454e+01 -1.1602325936307006e+01  7.2076108142938381e+01 -2.6575256737069111e+01 3.0011078218039793e+00  2.0132702240059484e+02 -2.6793433731368101e+01 -4.7086654878668028e+01  1.8813661776873550e+02 -4.7016614753800274e+00 -2.3535233184919349e+01  1.9157668291613447e+02 -1.3871582202148476e+01 -2.9498310617226874e+01  1.7646188651412936e+02 -3.0092376345739321e+01 -3.3807376222549777e+01  1.9372098399122319e+02 -8.2265681757362401e+00 -3.4240781616338531e+01  2.0089729237495345e+02 4.0482022068459971e+00 -2.0508057564980323e+01  1.9695279291136083e+02 -4.2589217323084432e+00 -2.1197102306084240e+01  1.6959808801847245e+02 -1.3663964515544659e+01 -1.8249764133765499e+01  1.8184869273529097e+02 -1.1927316443341983e+01 -1.7572159167160802e+01  1.9392117567384975e+02 -1.0887723933110939e+01 -1.6409923266679385e+01  3.8216149969462343e+01 8.1390612865562034e+01 -5.7267415318681723e+00  7.3983908223586369e+01 8.6778041293021246e+01 -5.0935563675645437e+00  5.4881289773193181e+01 7.2775287212769911e+01 -4.8239054896550009e+00  5.4452839694629610e+01 7.2759150001638119e+01 -1.0481092374343698e+01  3.8501242007821787e+01 8.3969518174760651e+01 4.7352701570329314e-01  6.1187178354113541e+01 1.0282403646712704e+02 8.0664631010167014e+00  4.3394847642655989e+01 8.5827522454131923e+01 6.2568834958123443e+00  6.3168668880485747e+01 5.9145469891312977e+01 -1.8804818228587909e+01  5.3029235357417986e+02 1.5494676781915379e+02 8.6530816833841385e+01  4.0367813220872011e+02 1.4894344209366315e+02 1.4529108350608001e+02  4.6321535245987593e+02 9.3592679533423009e+01 1.2978907150077879e+02  3.9200274502319007e+02 1.1039776416199878e+02 1.1353108746198910e+02  2.9651900645475689e+02 9.9878610355963119e+01 1.4347721523250829e+02  3.6717431501105034e+02 9.8084039319564198e+01 1.9222682812702419e+02  3.2680112576936750e+02 1.2802015276530051e+02 1.6378517200513519e+02  3.5277855361804041e+02 8.0660278733504015e+01 1.6248972620568031e+02  4.1630992230838228e+02 5.4083061937665200e+01 2.0381015814508262e+02  3.3622756251969867e+02 1.3765137055725680e+02 1.8129784977464919e+02  2.4219801125251954e+02 -2.5930267634029125e+01 -5.9771524213676351e+01  1.6639387549770160e+02 1.7443306074027618e+01 -3.4044911755387069e+01  2.0123117269044903e+02 1.4441477870868304e+01 -4.8223017648301884e+01  1.9278871806079275e+02 -3.2237559537741966e+01 -5.2148561585548478e+01  1.8018302534359006e+02 1.0558905123990321e+00 -3.2049590485807578e+01  1.7658356670348846e+02 -2.0595004877204328e+01 -4.3931475413419328e+01  1.8315869512947654e+02 -4.9990015434585250e-01 -4.7365504591832725e+01  1.6772891505059502e+02 -2.2306792522062864e+00 -3.1670708643465510e+01  1.5486017763970492e+02 1.6239969686905233e+01 -2.5802497055848423e+01  1.7702347626013551e+02 2.4081308888870382e+01 -4.1932917673211406e+01  2.6967568241969964e+01 -1.7236127648980133e+02 -4.2689148519958394e+02  5.6506444166971876e+00 -8.3535536928360941e+01 -2.3414848961779973e+02  3.3580524383639705e+01 -1.2071342838454540e+02 -2.6722781997481042e+02  3.3206382513900905e+01 -1.2326362177890101e+02 -3.0734701681284656e+02  -4.5726510473149510e+01 -1.0863258156886394e+02 -2.9121780062387705e+02  7.2573678985720889e+01 -1.7819123246282254e+02 -3.7622833873609301e+02  5.5624337819338557e+01 -1.5931781917374556e+02 -3.3173818534901670e+02  -2.5638586245170757e+01 -1.2044643297761830e+02 -2.6422078708912539e+02  -3.9781174630260004e+01 -8.6614903312804230e+01 -2.1786204087066309e+02  5.5043161171554630e+01 -8.2529689969711356e+01 -2.5838728039982982e+02  2.1345840149434531e+02 4.1621466493898476e+00 5.1076772749253312e+00  2.1961311284202390e+02 2.7139059781490669e+01 1.1209527267841928e+01  2.1147436591183745e+02 1.0941688971599440e+01 2.3689194794470949e+00  2.2354934908711951e+02 1.3802010433105396e+01 1.1831975834345659e+01  2.2349866097177286e+02 2.0734613031809847e+01 1.5883719701356489e+01  2.3551902202943771e+02 4.8832290668204593e+01 3.1116003593370746e+01  2.4260176552378203e+02 4.0272738803633644e+01 2.5218433528843981e+01  2.4513198109973661e+02 2.4911739639968062e+01 1.5484889737672205e+01  2.1991484011185804e+02 2.0116919613155854e+01 6.6998832382695443e+00  2.0857702918023750e+02 1.7613634722424703e+01 -5.7442418455240385e-01  9.1569041000139165e+01 4.0408678349467306e-02 4.9366669747898648e+01  9.0687280425113983e+01 2.3008163676241593e+00 4.9331879194298438e+01  9.3816977631152099e+01 3.1898147854118823e+00 4.9426864393852448e+01  9.1475496266776844e+01 8.2830540335002434e-01 4.7321072641329458e+01  9.0461492819158082e+01 1.6694028308086486e+00 5.2153018269902908e+01  9.3655997537547705e+01 1.3771970922837038e+00 4.7653783281976033e+01  9.7219512828711871e+01 6.7283681899792425e-01 4.6814216006828261e+01  9.5064205400693282e+01 1.0207620537556854e+00 4.5288296113096912e+01  8.9367895316255456e+01 3.5393290633899768e+00 5.5892598599960735e+01  9.2146504844353970e+01 9.9465226830327524e-01 4.4646774954570503e+01  6.9592703665457847e+01 -5.4285404843206138e+01 -1.1572390753476011e+01  8.5530958199759155e+01 -3.9130071148912712e+01 -1.0139942916353337e+00  9.6909756881680806e+01 -2.5564017042195552e+01 -3.3263437631001280e+00  8.7929416253191221e+01 -2.0243652773579541e+01 7.3713908163068877e+00  7.6040949077163603e+01 -2.5548775389375123e+01 -2.9705170029099328e+00  7.2533559140334688e+01 -2.5415409378466993e+01 -5.2051186080430778e-01  8.1654132484437056e+01 -1.2516414783637277e+01 6.1521787387479887e-01  9.0462099720445707e+01 -4.2527441092761915e+00 1.3314129130420531e+00  8.1940655252847421e+01 -1.6677810955425493e+01 1.8743769041752170e+00  1.8153621049983357e+01 7.8800137054905139e+00 1.5076607440746548e+01  9.0427500730245747e+00 -7.2494681634482239e-01 1.8097346403661362e+01  9.9921534038971558e+00 2.4156956805914622e+00 8.6447644020373602e+00  1.7421157235323538e+01 -3.4194136681971027e-01 1.7723508185776055e+01  1.6147685548605082e+01 3.1509365006855630e+00 2.2087905853784541e+01  1.2753767835088071e+01 2.4337541027212035e+00 2.2014377473782719e+01  1.1590378866985029e+01 -1.2895780446356337e+00 1.2248153355331977e+01  1.6889409825180394e+01 1.0640650394633369e+00 2.1382754875861245e+01  1.5894308969336029e+01 -1.1173652065450890e+00 1.6979712884366720e+01  4.2015864062086807e+00 -1.0184758295113452e+00 2.4907432147812214e+00  8.5701394310337491e+01 -6.5012708697175441e+01 5.3154588595485116e+01  9.8154493366673989e+01 -8.0800099957891064e+01 3.0713693730829256e+01  9.0403181040747612e+01 -6.7731167938430985e+01 2.0364841521762269e+01  1.0538910241138902e+02 -7.1099203944162454e+01 4.6549715336663255e+01  8.1557279647575697e+01 -7.2275573383111762e+01 2.6928380393299317e+01  9.2402485972218528e+01 -5.7509444170167626e+01 3.5041078592688777e+01  8.8130119401952498e+01 -5.4814440779038350e+01 3.1841704173266127e+01  9.6203790115651316e+01 -6.3259004872668335e+01 3.6818017747518610e+01  8.1542157828104394e+01 -8.1281933473647825e+01 8.2740641076789103e+00  1.0682239262913963e+02 -7.2714679453332820e+01 4.0221589917879825e+01  1.1885859186313651e+02 2.4021105650683548e+01 1.4605295948041478e+01  1.3796249594299695e+02 3.0737198172539014e+01 3.1677329223308748e+00  1.3106778592427762e+02 2.0082268821995132e+01 5.3666396121792994e+00  1.3089770004065144e+02 3.1564412665269497e+01 1.1024434956196083e+01  1.2534637517239878e+02 3.5234719111463221e+01 1.3088510347242071e+01  1.4493934085446884e+02 3.6774616615844700e+01 4.7196963570763515e+00  1.4205563177898063e+02 2.5516284246780771e+01 1.9665313100575441e-01  1.4002488674365432e+02 4.2814477166166014e+01 7.6880648261111659e+00  1.3401235486677194e+02 4.6853561551156993e+01 1.1195968727742923e+01  1.4138087870837455e+02 1.6343949677274473e+01 -4.7481574203697816e+00  3.1538966752105477e+01 3.3759417718401261e+00 -1.9257040579901300e+01  3.3092330135918921e+01 7.8556121087651967e+00 -1.1615784429101708e+01  3.8704465882127280e+01 1.9267155617733980e+01 -8.2564621830342197e+00  2.8977700530500744e+01 8.5585368542756441e+00 -1.3068914085822415e+01  1.7481530907034365e+01 1.2152401842271354e+01 -5.6922850408041112e+00  2.5925037572171323e+01 1.4653812733879482e+01 -3.9144084288459644e+00  3.0721700176686110e+01 2.6702455509809404e+01 -6.2876924268744427e-01  4.4737569141061215e+01 4.0941598041330884e+01 4.4596600190446898e+00  3.8940906282665217e+01 2.7680750731314845e+01 5.2760799038815054e-01  3.3026500943459496e+01 1.5169248146885076e+01 -3.5119544603268644e+00  3.6745148477101047e+01 6.4046542547945279e+01 1.1005312680746908e+01  6.7051911868274033e+01 5.7564277730522001e+01 -3.7755959664170269e+00  5.4195922732690761e+01 7.4223495007276711e+01 1.3024952961208310e+01  4.7141257456766297e+01 5.3306938409747382e+01 1.2296752766078682e+00  5.7570457551627804e+01 7.1136389213607316e+01 4.5484489526931799e+00  7.7062980213711455e+01 7.4075126740702558e+01 -1.1311869321440804e+00  7.6258686008471443e+01 7.7131828388001026e+01 6.5529534406501773e+00  5.6840263876027329e+01 4.0450274367292344e+01 -6.9923069295272571e+00  6.5176130995790331e+01 5.9923024370601738e+01 3.7398231095570060e+00  7.4998235191906033e+01 8.2274220367123817e+01 1.4222685009358438e+01  1.5342991209913629e+02 6.9193854677911119e+01 -1.2558942292480813e+01  1.3387360387217419e+02 2.8090569773138686e+01 -2.6512617828071793e+01  1.2898248894295043e+02 3.8937281246671120e+01 -1.8444595594035913e+01  1.3164898133061675e+02 5.6224637914309945e+01 -1.4455909601272744e+01  1.5640866245835264e+02 4.3555027628103112e+01 -2.3102984238331732e+01  1.6272000137519103e+02 1.6833715656550446e+01 -3.1494919121170103e+01  1.3374730737129093e+02 8.4111008947592225e+00 -2.9461468260972648e+01  1.0852719446978945e+02 4.4834017902427078e+01 -1.7818362839171431e+01  1.0426927653474456e+02 2.6087926216663952e+01 -2.2531800921569577e+01  1.0059539523626914e+02 4.7693328207691126e+00 -2.6798762126523343e+01  8.9683460088278188e+00 3.0499562381001937e+01 1.1893463872954351e+01  2.0951153182389579e+01 2.9127052331543450e+01 1.0512911850963270e+01  5.6850127128579624e+00 2.3661282079854896e+01 1.2938835640330861e+01  7.3926963096487697e+00 1.9488477068526073e+01 9.1090224618532911e+00  2.3104462277876880e+01 2.5581142990048328e+01 5.1082606142990779e+00  6.8645631731273848e+00 3.6883806296995161e+01 1.5537012094683488e+01  7.7729892146810275e-01 3.7750358008505970e+01 2.6725558035444664e+01  3.6922352265119125e+00 9.3020136839155096e+00 6.2876803892173543e+00  1.7760826548685966e+01 1.4108156743177418e+01 2.0870864697844009e+00  2.0244906619854663e+02 2.5241559430137571e+01 -1.1939488766826177e+01  2.0247925310880376e+02 2.9449574867881442e+01 -6.8105907864891488e+00  2.0527359910373497e+02 2.7971154593473223e+01 -1.6105277391588505e+01  2.0078977582916164e+02 2.8775232885884552e+01 -1.3102666930794259e+01  2.0814579287824120e+02 2.8973631824791660e+01 -1.5714070370971484e+01  2.1027493332209997e+02 2.9407682098927612e+01 -4.0893851237248304e+00  2.2452985018849205e+02 2.0585979290094581e+01 -2.3643542063213122e+01  2.1402908070993180e+02 2.9299538872591217e+01 -6.0330362766954488e+00  1.9938585667319921e+02 2.9098057686188426e+01 -1.2413626258830957e+01  2.0105669638181624e+02 3.5436656800291715e+01 2.0124886951839978e+00  9.4044219831446199e+01 -4.0658698385684900e+01 -2.5407443393549439e+01  6.2209134300787952e+01 -3.4766741230464739e+01 -2.1884839489231585e+01  6.9696260416328542e+01 -4.1431842053825001e+01 -2.8848228070133807e+01  7.3219801837568085e+01 -4.1991118355313951e+01 -2.2569451883940761e+01  8.6039220459978296e+01 -3.2465636965853164e+01 -1.8356775898371289e+01  5.5996541431341008e+01 -4.5297592832603115e+01 -1.8913112544030248e+01  5.2710216448858731e+01 -4.4329882809493284e+01 -2.4986946201071667e+01  6.6042036418338100e+01 -3.5969464333076779e+01 -1.6036240510217361e+01  7.8559154567197282e+01 -2.5147781367799354e+01 -1.2535746295674292e+01  4.6964680900747936e+01 -4.6194479266009616e+01 -3.0240714483648187e+01  1.9688936095945729e+02 -9.5801943429693359e-01 -4.7913469242201472e+01  1.6334766499564998e+02 -1.7515908668340192e+01 -2.8759908710735953e+01  1.8035075968387778e+02 -1.7374736660656406e+01 -3.2308303021536638e+01  1.5708649981829751e+02 -4.8020695527883824e+01 -4.2732477786703811e+01  1.5472635995759049e+02 -4.5545044403520926e+01 -3.5091892700333041e+01  1.4851840432275486e+02 -3.3877172404978509e+01 -2.3226879400692262e+01  1.5580359885299302e+02 -2.6271503272453309e+01 -2.4418773451345444e+01  1.5620709984311958e+02 -1.4566749139787813e+01 -1.6934790134170072e+01  1.4035068709255748e+02 -1.5152441629675957e+01 -1.5576365498223234e+01  1.3274161991800841e+02 -1.5070842821163382e+01 1.0485591472869260e+01  1.1001154712896124e+02 -1.3682032788211551e+01 2.1974307403195446e+01  1.2969729145944225e+02 -1.9382842870436065e+01 6.6518879578159824e+00  1.3300624033600374e+02 -6.7927606206914537e-01 1.5931277631210611e+01  1.1418631480466571e+02 -1.1604423360059656e+01 2.9282956130708602e+01  1.3354600668665955e+02 8.8723874227962867e+00 1.8054273748690239e+01  1.1571013602214258e+02 9.7458601484655116e-01 2.8632180036774120e+01  1.2910317872370911e+02 -3.5435383997837611e+00 8.2312542867121188e+00  9.6209211269615039e+01 -4.7426311124080804e+00 4.4109671448025871e+01  1.2625699201883603e+02 -1.9788664639011486e+01 2.8776559354609215e+00  2.5070703652799713e+02 1.1862794269963004e+02 -5.9617721656012774e+00  2.0182412815189181e+02 1.1563584417481614e+02 5.6859556191619687e+00  2.0879807627814708e+02 1.2006449939328010e+02 2.1993263614794238e+00  2.2140471829133546e+02 1.0400813542106025e+02 -2.2783191035580490e+00  2.2266208297336598e+02 1.3126863333198207e+02 -1.7608368228840978e+00  2.1433934875552981e+02 1.3133698235871844e+02 6.0961272960442265e+00  2.0181218059867803e+02 9.3897098705428789e+01 -4.1673294454207470e+00  1.4791536469125037e+02 -3.2545696747254973e+00 8.4665386468421122e+00  1.4974404655172020e+02 1.2527023758207347e+01 1.6484984166356245e+01  1.4705659854246562e+02 7.5351752242246581e+00 1.1721907443746977e+01  1.4786799220193532e+02 8.9655109206721484e+00 1.0465989684164018e+01  1.5030365610384848e+02 1.9744005793174844e+00 1.5285388957207225e+01  1.5545890160214532e+02 1.9505185775629059e+01 1.0044565977378102e+01  1.4893410904069731e+02 1.9582405934747907e+01 1.1440591706066092e+01  1.5372888948685852e+02 1.0315141367612805e+01 1.2832990431852549e+01  1.5123704792146444e+02 3.1999540232379498e+00 1.8570884022348814e+01  1.4637268979703538e+02 1.9565285618486371e+01 1.2171909355308982e+01  4.3763177256679533e+01 -9.2680762348913760e+01 -2.5871653200291394e+01  3.3633085585886569e+01 -1.1836013539437323e+02 -4.7396