<?xml version="1.0"?>
<VTKFile type="UnstructuredGrid"  version="0.1"  >
<UnstructuredGrid>
<Piece  NumberOfPoints="6760" NumberOfCells="31237">
<Points>
<DataArray  type="Float64"  NumberOfComponents="3"  format="ascii">8.567607000000001 30.46896 27.980612  9.326371289638672 30.0188085317544 28.03157208303019  8.855579500000001 29.857338 28.6538795  9.331067000000001 30.3703215 28.6076735  9.060275000000001 30.688287 27.909297  9.552943000000001 30.907614 27.837982  8.466892000000001 29.985328 28.162344  8.366177 29.501696 28.344076  9.333912000000002 30.2875375 27.6753985  8.740529 29.5845785 27.9284455  6.946675 39.096977 27.345705  6.490994266106281 38.25834116513927 26.97244188352147  6.120014436228956 38.64429785784439 27.14461378226936  6.880426 38.82505 26.814312  6.814177 38.553123 26.282919  6.424745266106282 37.98641416513927 26.44104888352147  6.053765436228956 38.37237085784439 26.61322078226936  5.293353872457913 38.19161871568878 26.94352256453872  5.664333702335238 37.80566202298365 26.77135066579083  6.035313532212562 37.41970533027853 26.59917876704294  3.108393 35.531193 29.287247  3.334656361349449 35.346430005111 28.44794382205345  2.64417 35.712805 28.7508605  3.227645 36.0949615 28.8472845  3.346897 36.65873 28.407322  3.453908361349449 35.910198505111 28.00798132205345  2.763422 36.2765735 28.310898  2.179947 35.894417 28.214474  2.870433361349449 35.528042005111 27.91155732205344  3.560919722698899 35.16166701022201 27.60864064410689  4.584508712077805 36.33081972459836 26.30477876565587  5.141201437071303 37.30146446816428 26.97548392341223  4.415799027003924 36.75702166532419 26.8282839227187  4.938931292267859 37.26121922014357 26.6241506650973  5.309911122145184 36.87526252743845 26.45197876634941  4.770221607193978 37.68742116086941 27.14765582216013  4.247089341930044 37.18322360605002 27.35178907978153  7.289068 37.843037 31.814825  7.421960705869331 37.54168185510857 30.66161728721539  6.731831705869331 37.56919535510858 30.79460328721539  7.147929705869331 38.02436735510857 31.09284028721539  7.147000999999999 36.9051795 31.085365  7.563099 37.3603515 31.383602  6.87297 37.38786500000001 31.516588  6.456872 36.932693 31.218351  7.83713 36.877666 30.952379  7.006791411738662 38.20569771021714 30.37085557443078  5.361182 40.7 25.715767  4.758963 39.928602 24.9756415  4.778467806394487 40.02817845802524 25.91005215991302  5.3480935 39.928602 25.2281095  4.7720515 40.7 25.463299  4.182921 40.7 25.210831  4.189337306394487 40.02817845802524 25.65758415991302  5.335005 39.157204 24.740452  4.765379306394487 39.25678045802524 25.42239465991302  4.195753612788974 39.35635691605048 26.10433731982605  1.918761 37.029743 24.10248  2.433695453672198 37.8282797652963 23.67008712948016  2.387399833693631 37.90597560557947 24.02159612294898  2.492847953672197 37.2471792652963 23.52320412948016  1.8596085 37.6108435 24.249363  1.800456 38.191944 24.396246  2.328247333693631 38.48707610557948 24.16847912294898  3.066934907344395 37.4646155305926 22.94392825896031  2.961486787365828 38.12341187087577 23.44232025242913  2.856038667387262 38.78220821115895 23.94071224589795  3.396812980111819 30.80852630564702 31.21566899462062  3.976784774922475 30.31287949906534 30.28228692228992  3.385829488267854 30.62521604687967 30.37980273780162  3.983595151494415 30.74732866489504 30.54548712112686  3.98776826676644 30.49618975783268 31.11815317910892  4.57872355342106 30.18385321001834 31.02063736359721  4.574550438149036 30.43499211708071 30.44797130561516  4.570377322877011 30.68613102414307 29.8753052476331  3.97261165965045 30.5640184061277 29.70962086430786  3.374845996423889 30.44190578811233 29.54393648098262  4.982333 37.081398 29.639566  5.375058329335308 36.87628422572803 28.81725168701507  4.934684599829879 36.64974837199428 29.00039251990863  5.296788099829879 36.59902237199428 29.32015351990863  5.060603229505428 37.35865985373374 29.13666416710644  4.6202295 37.132124 29.319805  4.258126 37.18285 29.000044  4.698499729505428 37.40938585373374 28.81690316710644  5.138873459010858 37.63592170746748 28.63376233421288  5.611243199659759 36.11664674398857 29.00074103981725  7.177561 28.161535 35.18124  6.585168325599053 27.90505436294407 35.77016888525287  6.518953825599052 28.19884036294408 35.12601138525287  6.910831325599053 28.45818336294408 35.50542888525288  6.851898 27.608406 35.44598000000001  6.4600205 27.349063 35.0665625  6.785683499999999 27.902192 34.8018225  6.393806 27.642849 34.422405  6.526235 27.055277 35.71072  6.644101651198105 28.75483172588815 35.82961777050575  2.141387 28.877905 34.647034  2.7728194460009 27.96134764746106 34.61433321247648  2.5223624460009 28.27255914746106 35.06009971247648  3.187897893979855 28.84299432274101 34.85176874105139  2.391844 28.5666935 34.2012675  2.642301 28.255482 33.755501  3.438354893979855 28.53178282274101 34.4060022410514  4.234408787959711 28.80808364548203 35.05650348210279  3.568873339980756 28.23764847020207 35.26483445352788  2.9033378920018 27.66721329492212 35.47316542495296  5.3410677097661 29.46819207011963 36.85898075113285  6.270232782589535 28.77503678104149 37.77548652198297  5.975052057824053 29.37145671180145 38.18114226831677  5.451540128531036 28.90101065247215 37.63862811144884  6.159760363824597 29.34221819868897 36.99583916166699  5.864579639059116 29.93863812944893 37.40149490800079  6.388091568352133 30.40908418877823 37.94400906486872  6.683272293117614 29.81266425801827 37.53835331853492  6.978453017883095 29.2162443272583 37.13269757220112  5.562012547295973 28.33382923482467 38.41827547176482  6.423767387844529 37.36273162683409 27.94025013687559  5.820782568522501 36.19089975610935 27.20266344659819  6.48244160065716 36.83918377565701 27.21323467153779  6.699954459287337 36.39399865221459 27.80639757998446  5.76210835570987 36.71444760728643 27.92967891193598  5.10044932357521 36.06616358773877 27.91910768699638  6.038295427152677 35.74571463266693 27.79582635504486  6.976141530730144 35.42526567759509 27.67254502309334  6.758628672099968 35.87045080103751 27.07938211464667  6.541115813469792 36.31563592447993 26.48621920619999  4.095917 38.981312 28.961435  4.2562976389533 39.27282724856877 28.17619195548014  4.755239119801989 39.02987523868688 28.62503600555979  4.128632117218622 38.84244132383307 28.32707699377931  4.223582521734678 39.41169792473571 28.81054996170083  4.351248043469356 39.8420838494714 28.65966492340166  4.882904641536667 39.46026116342259 28.47415096726062  4.161347234437244 38.70357064766615 27.69271898755862  4.787954237020611 38.89100456251996 27.9906779993391  5.414561239603978 39.07843847737377 28.28863701111958  3.017871 37.510128 27.346767  3.469427670965022 37.12057280302501 26.90618003989076  3.439192670965022 36.79938330302501 27.29882603989076  3.632480170965022 37.34667580302501 27.34927803989076  2.8245835 36.9628355 27.296315  2.8548185 37.284025 26.903669  2.631296 36.415543 27.245863  2.661531 36.7367325 26.853217  2.691766 37.057922 26.460571  9.677225999999999 33.615673 29.038078  8.909767946628104 33.45792748973911 29.35556338530592  9.039901313032043 33.06217480418982 28.82043300746432  8.725379572554662 33.63709383499784 28.67572119711545  7.773533145109325 33.65851466999568 28.3133643942309  7.957921519182767 33.47934832473695 28.99320658242137  8.088054885586706 33.08359563918766 28.45807620457977  8.402576626064086 32.50867660837964 28.60278801492863  8.272443259660147 32.90442929392893 29.13791839277023  8.142309893256209 33.30018197947821 29.67304877061184  9.011977999999999 35.614914 28.957203  7.790945663522853 35.57403217406747 28.80092010550925  8.571956840287083 35.23830303407102 28.69478005946092  8.360020327839102 35.1131239022758 29.49903240523924  8.230966823235768 35.95064313999644 29.06334304604832  7.449955646471539 36.28637227999288 29.16948309209665  7.579009151074871 35.44885304227224 29.60517245128757  7.708062655678203 34.6113338045516 30.04086181047849  7.919999168126186 34.73651293634683 29.23660946470017  8.131935680574168 34.86169206814206 28.43235711892184  8.250897 31.177145 34.188625  7.865651691179709 32.39277387885956 34.14535345025796  7.223351211564889 31.83808681858228 33.78795963843208  8.336288863943134 31.93519538765256 33.86308001986997  7.780259827236575 31.634723491207 34.47089843038799  7.779380248271448 32.13855871502783 33.18014122791405  7.693988384328315 31.38050832737527 33.50568620804408  7.13707976865663 31.58387165475055 32.82274741608817  7.30962265447315 32.092301982414 34.75317186077599  8.421680727886267 32.69324577530511 33.53753503973993  6.906356 27.101225 36.991055  6.290914979622848 27.13768169586747 37.95477530440301  6.234184273647987 27.71752711741234 37.70466523588241  6.066966479622847 27.12188519586747 37.36325880440302  7.130304499999999 27.1170215 37.5825715  7.354253 27.132818 38.174088  6.458132773647987 27.73332361741234 38.29618173588241  5.227576959245695 27.14254539173493 37.73546260880602  5.394794753270834 27.7381873132798 38.07686904028542  1.752803 39.179516 23.92333  1.933625318294168 38.57031221481659 23.21828480413829  1.6267095 39.26314 23.3036515  1.577827 38.614174 23.5534085  1.402851 38.048832 23.183487  1.807531818294168 38.65393621481659 22.59860630413829  1.758649318294168 38.00497021481659 22.84836330413829  1.4517335 38.697798 22.93373  1.500616 39.346764 22.683973  2.114447636588336 37.96110842963318 22.51323960827658  6.231969037468849 29.99128656970372 36.9049369019462  5.41327638341035 30.11726044113439 36.76807849141207  6.036933948464736 30.08705241890468 36.44885466481841  6.732800187163373 30.70591276768971 36.03872857850398  6.109142622108987 30.73612078991943 36.35795240509763  6.855626602523234 29.96107854747401 36.58571307535255  5.485485057054602 30.76632881214915 36.67717623169128  6.678077 29.446793 32.300461  6.153783348291373 29.18733366477425 32.91798010701457  5.616592768238601 29.53375966649413 32.50762380254083  6.3410385 29.0077535 32.2993545  6.004 28.56
[...]
<PointData  Scalars="c_HbCO2"> 
<DataArray  type="Float64"  Name="c_HbCO2"  format="ascii">1.5012797624018126e-31  -2.4744105991930188e-32  -1.3220403877004190e-32  -1.0869217659058825e-32  -1.8289779398892140e-32  2.1581243331484101e-32  6.7732727455365402e-32  7.1879055255391161e-32  -9.9146046178262025e-33  -2.7196743086100466e-32  3.0776909378212690e-30  -1.5610798837650951e-29  -3.8961683319744464e-30  1.5638203372656791e-30  1.0976971235815674e-29  -4.4092983011665051e-30  -2.4185147869388801e-29  4.4191011041731506e-29  3.2558854292116569e-29  6.6161549362008954e-29  2.0679199692427624e-26  2.0074087080803127e-28  -1.5315776750616636e-26  -2.5045174057976434e-27  4.8806056606051838e-27  -1.3249781811033659e-26  -1.6298007880929709e-26  1.1090298116125158e-25  4.1643454725678387e-27  2.9089953525684342e-26  8.7904162646031718e-28  -1.5363304057051037e-28  5.6067308308529170e-28  -1.4120467271035155e-28  -1.3569242742293674e-28  -7.0921673334195080e-29  5.6067697867447989e-28  3.8263373090785715e-31  -2.4261102791031657e-31  -1.4792139938596158e-30  8.7592101822746692e-32  -4.9730625622142659e-31  -2.5495915099190681e-31  -1.1372880355400028e-30  7.0056479974999277e-30  1.7090353672558443e-30  7.5418518971236477e-31  2.3446341002578414e-29  -8.3164801573091868e-29  5.1643790995657102e-31  -3.4822995632714029e-29  -3.3890779048288673e-29  2.1746928943548422e-28  -1.0803408849216210e-28  2.1390539392217143e-28  2.8000337565164719e-29  9.8855818809336322e-29  5.2662436733101444e-26  -2.6784060824948403e-26  -1.9822314266932056e-26  1.8004204078580433e-26  1.2013618068967390e-26  3.1219330073446229e-26  -3.1230728658514401e-27  7.7460363706329049e-26  -1.8465609367145653e-27  2.6342586691729874e-26  6.4598520417814316e-27  -5.1313654173775620e-27  -6.1976023021438773e-27  -1.9265555699006189e-27  -7.8292193530128264e-28  9.6126242360118247e-28  1.7637981501495091e-28  3.5858034085620350e-27  -8.1423534072531450e-27  4.7983435957419650e-26  6.2137363188587996e-29  3.3288889909977461e-29  -1.0549792610800639e-28  1.2235197309770200e-29  -3.2878306086858602e-29  -5.3643178167823975e-29  3.8037483797295944e-28  4.2257299651810403e-29  6.0110412934312150e-29  1.0642030079388291e-28  3.8285013714097893e-31  -3.2749202068910665e-31  7.8037568963457015e-31  -1.6500682019474715e-31  -2.4291118849551497e-31  -2.2780003956938664e-30  -9.6518926626186732e-31  5.8770758615516614e-30  1.9867715928350221e-30  8.1246994816682059e-31  7.9408131507080598e-30  -6.5100190649877399e-30  -9.1018906271413724e-30  -7.4383979871078281e-30  -7.5440796720299469e-31  2.8449764036666987e-29  -2.3193006462902557e-30  6.5760030340907608e-30  -5.0191840829405191e-31  2.2914342057195119e-29  3.0775345055227004e-31  -1.4480350367415260e-31  -1.0499686797507150e-32  -7.8532071725447914e-32  -7.3154699456815292e-32  -4.4544537342914937e-32  2.5065948372730514e-32  -5.6932103819881866e-33  1.0100282842284541e-31  1.0193811596501361e-31  3.6196204098206138e-29  -2.3446787163989631e-28  5.6127312398451338e-29  -5.0076915609085161e-29  -1.0647440647214749e-28  1.3532282114815588e-27  -2.2277825917305791e-28  6.0462112036596299e-29  5.4396283819729582e-29  8.2371976171917418e-29  1.0825236399392979e-29  -1.8842234462609850e-30  -1.3372584939164541e-30  -1.6476837321263537e-29  -1.6816595746978400e-30  1.1186125569555371e-30  -4.9028244269907428e-31  2.7803048578824488e-29  5.0208889824068441e-30  5.1897901638285321e-30  6.1718522461986022e-28  -5.5790785123325999e-28  -1.8029424008033888e-27  1.2611353567632049e-28  -1.4436184485255477e-27  -4.3196178595266313e-29  1.3791530384359327e-26  -4.4027692455000321e-27  1.2492891858252353e-27  7.9797123460004959e-31  -1.1008771693437469e-30  -3.2596633306712226e-31  -1.8580561244697476e-30  1.4349565441092591e-29  3.6369351804665470e-30  -3.9622128799088678e-30  9.7672401773844664e-31  -2.6267078758817727e-30  8.8785409581122688e-30  1.0267118471157956e-30  -1.3793457007082917e-30  -2.4578197408409838e-31  -1.7501950695520809e-30  -1.3035840403395833e-30  1.1952478002076836e-29  -5.9404778184576045e-32  1.2100052655517794e-29  -2.0980331976798122e-30  3.8658161009423163e-30  6.9282431623215533e-31  1.8785178593058172e-31  -2.4852699552780722e-32  -1.4220385910386655e-31  -1.5330931204178059e-31  -5.4690720371076887e-31  -1.2904820913025725e-30  1.0158200946164915e-29  2.2824430629116742e-30  1.2748485361821593e-30  2.5611965271481990e-31  -2.4426011279052304e-32  -1.9607856679076274e-31  -5.2470438678417513e-31  2.1900304705819942e-32  7.9037867357521414e-32  2.2917172413229750e-33  1.2778220527254926e-30  -2.0699248482481211e-31  3.8745623425120629e-26  -1.0101919216681719e-25  -6.2589490487673752e-26  -3.2708315580298816e-26  6.3531327364442877e-25  -1.3097152150780068e-25  1.9929032189900043e-25  -5.6257325050349738e-25  4.6523425038400354e-25  8.0667032806681565e-25  -4.5352007688558488e-32  -1.2492624355103563e-31  -1.6115611500109050e-31  3.7236113910948558e-31  7.2212851098699558e-32  -2.0710842867622125e-32  2.6639793618686330e-31  1.1715609160088032e-29  -7.7678449503506649e-30  -4.6101652980328570e-30  -1.6814668013678166e-29  8.9435159050805607e-29  8.1711886685269824e-30  -9.6297500390509566e-29  2.2182772071983924e-28  -1.5235992886110507e-29  2.1620950771510864e-29  2.9962448890533219e-29  -4.4339593859641934e-29  1.0912487176402813e-29  -1.1426369157245711e-29  1.0556009577805894e-28  -1.4660915348387065e-28  -1.7884433990301531e-28  8.0018341485543030e-30  4.5820772576663699e-29  6.8548369626526919e-28  -1.9388184389677746e-29  2.0235768030449693e-30  -2.3962396652249732e-29  2.3500880544024823e-29  1.0106160040206468e-29  -5.7915386735794729e-30  5.2344190210788389e-30  -3.5051066426789593e-30  5.9688073741066051e-29  -6.2207700519018196e-32  -1.2671093797812978e-31  1.9442370091661638e-30  -1.3435884561869006e-30  1.5482822991220884e-30  -2.1856672996375811e-30  -2.8177863040022186e-30  -7.7139159759891355e-31  4.5623912307261817e-31  1.8605708397668806e-30  3.5489689362640578e-31  1.7350703283371951e-30  -2.8496446085457742e-30  1.5505905119531449e-29  2.1162782505140398e-28  -4.2829244250772288e-28  4.6291089280612638e-30  -1.1759473591570787e-28  -5.7633788974230491e-28  2.8707558900544051e-27  9.6880439229501653e-28  1.4114538510960208e-27  -5.9939250652894279e-28  2.3181272112892977e-28  4.9250504962408355e-29  -3.8302091428608828e-29  -1.1769382635896192e-28  -2.4502127719973027e-29  6.0483882204112483e-29  2.1510383719428800e-28  -6.1746070147649427e-29  -1.5498205349479176e-28  5.7907679228226069e-28  2.9277286324736609e-28  1.4750171238340724e-28  -5.1263878017174588e-29  -1.1775065502716591e-28  1.1564281912980268e-29  3.6103960491561906e-29  -5.2446732216054366e-29  3.3102019372792548e-30  -9.6540655413653379e-29  6.4980603859434320e-28  2.4728147125069787e-29  5.9556304331220952e-28  -2.7159344095688130e-28  -1.3313251815594321e-28  -4.1769954061037591e-30  5.5818640501266158e-29  -4.8229934951959327e-29  1.3707389165551473e-28  -1.8298209786580110e-28  1.5170427021285244e-27  2.6997731815573591e-28  3.6907148379008508e-30  -1.2288785529290250e-30  -2.6875369897026940e-30  -5.0613017299914177e-30  -1.4012567172112980e-29  8.2960437478780508e-30  3.7257569489703534e-29  -1.9942813665347490e-29  -1.5714411452725502e-29  1.2050986518941809e-29  -1.6505252141599521e-29  1.4789345069835600e-28  -1.5357207453156048e-29  1.7572648397156770e-28  -2.4644216452719123e-29  1.3451150680535753e-29  -5.6835022295083855e-30  -2.1008826668973882e-30  -4.7029981525817643e-31  1.2858010681231860e-29  2.3492647170534263e-29  -2.9121688679992058e-30  6.2537493325951797e-26  -1.8778650038013153e-26  -1.7615569483963787e-26  5.8561738742178671e-26  7.1639299022108685e-26  -1.0905158437375984e-26  -1.3961154087477774e-27  3.6089343300335031e-27  1.0081236260486132e-27  6.8799732170742575e-27  -2.8821729765285453e-30  9.0143279648868359e-31  5.5381685388362202e-31  1.2253086783511243e-30  -1.1916793425056239e-30  -1.4685440054756656e-30  4.7481567557101561e-31  1.8174377657122635e-30  -5.5725973533455340e-29  -6.0767117316167412e-29  1.4147603552381216e-29  2.2397650408974485e-29  -2.2337262421100262e-29  1.7279899676832601e-28  -7.3742043667237490e-29  -2.2956019090064958e-29  -8.3641371616602803e-29  -7.1969736187266711e-29  3.9331630664883440e-28  4.5449820337987026e-29  1.4694282596908472e-28  4.2965958769028010e-29  -6.1034981786371459e-30  1.1943507298067587e-29  -1.3140577995261352e-29  1.0048332970349356e-28  -9.6151551227165678e-30  -8.5480317888506997e-31  2.6630523002451344e-29  -2.5203334382661280e-30  3.9627427699930949e-30  3.9366390855087014e-30  -8.8877580593638679e-31  -5.8995404762733939e-33  1.8524698356185444e-31  -1.6580477453563941e-32  1.8132364439539572e-30  1.0583760886137020e-31  4.9654872479621333e-31  -3.0697481211251411e-31  1.3479195558092065e-30  2.6630690629543533e-28  -5.6203971688300740e-28  -6.7842159995323659e-28  1.0839913673223647e-28  -5.4290425786559899e-28  -1.6736544554561841e-30  9.6457626832663404e-29  4.3574429706397050e-27  1.7346530097900645e-28  -6.4604009244220136e-28  -1.7469522447642140e-27  -9.6536930724058445e-29  5.2147546486431167e-27  4.9800344850806747e-28  -1.4829184061135262e-28  1.8874440183797318e-28  -1.1927882755417254e-28  -6.4763567280944163e-29  1.3681998299493903e-28  8.9387679405646327e-29  -1.0145743475193653e-28  9.0062669063144545e-28  -7.8949654233159153e-30  2.5471572991865468e-29  -1.6265699801513985e-29  -2.1866163628506476e-29  4.9734951207848721e-30  -1.5655247446453312e-29  -3.7643991416357668e-30  2.9725635861933335e-30  -5.3889564612818361e-30  5.1824290857519793e-29  1.3981549943768523e-29  2.3666726779211579e-30  -5.2365043503765344e-30  -2.6111218412435378e-30  -1.0052486173301658e-30  -1.6239422944821510e-30  -2.4156676373847113e-30  -2.1237414371419966e-30  9.4686146294430777e-30  -1.6960601994224880e-31  2.4622815726311386e-31  -3.7147666123437043e-31  -2.6222276215584966e-31  2.4187537542286932e-27  -5.6727169391814700e-28  -1.5016522791597847e-28  -2.3097292181403536e-28  8.2666410766092541e-30  -1.4089217973792074e-28  3.9903633695824765e-30  -1.8274598553643740e-30  -5.6601615435815285e-30  -2.9734366133036543e-30  5.1425496821757735e-31  -7.4025956273630767e-31  4.5835451059515725e-31  1.5885955980012047e-30  7.2831269156319816e-28  1.2103328706585826e-26  3.0011782312658448e-26  1.5070511972196473e-27  -8.7795668100985402e-27  -1.2159898681470875e-27  5.4069900855213184e-27  -7.1127537715830839e-28  -8.2551588898741832e-28  -4.6702759576152207e-28  4.3610873862034322e-27  8.6644336158791948e-28  -3.3639363375708665e-28  -9.5978903109728006e-31  -2.6121278914484855e-31  4.9186999178141167e-31  3.2261488946257315e-31  -4.4851547339348101e-32  -1.5901100783906869e-31  5.5859567656047205e-34  2.5561181284475214e-31  -9.4365115156626127e-32  -2.5254180275403022e-31  9.1986374941954413e-30  -9.8827512209373845e-30  -7.3317744867469166e-30  -1.5010718241072140e-29  -2.9956448946891932e-29  -4.0822164015373554e-29  6.5989703070014379e-30  3.6445942997558056e-27  -1.1584141155889998e-28  -6.4298084077777004e-27  -3.9664099259651742e-27  6.2235357465273792e-29  -6.2137832236427065e-27  -3.4403514670656895e-27  1.8247835711092851e-26  -2.1467576713897508e-30  -2.1594596498495859e-30  3.0245176524913083e-30  1.1869248465372667e-32  8.3307364591752265e-30  8.3429899099782824e-31  1.5128526683656484e-29  -1.1007858280229764e-25  -1.8289547055660601e-26  2.5200348514244355e-26  -4.6838444496660160e-26  2.8792697108202275e-26  -1.2496536775042730e-25  -5.3427720788752001e-30  -3.6854109448302367e-30  -3.7870727927539832e-26  -1.1733463829713908e-25  -1.2090520234416676e-25  4.3314049673263717e-31  -4.3534850953684808e-31  -2.9777463631354211e-31  -4.0487055250112598e-31  -3.1796968318283706e-31  1.2664864468806953e-31  1.5730000263272278e-31  4.3594445321494449e-30  -2.7790193572577437e-26  -1.7148748181948019e-26  -4.0713818568322411e-26  1.2155436562602444e-25  -5.3446430573030528e-32  -1.0622905798898510e-31  7.1645973951240379e-25  -3.2943287601053115e-26  -1.4201544342843691e-25  -8.8648754307884529e-26  -1.3478499589521718e-25  6.7053575139673231e-26  6.2848353241351863e-27  1.0481968152602057e-26  4.2960894785210715e-26  1.7573982570316565e-31  1.7926160705379496e-31  -1.0389852891927044e-31  -2.1219813636592020e-31  -8.9763934198134449e-32  3.0856282877797361e-31  -1.3409282257575425e-30  8.4790533006870813e-33  7.1134462916603098e-31  1.9574038358282428e-31  -5.9260241784549340e-32  -2.0077707403253796e-31  -2.1156635443067024e-31  -4.0917576543572382e-31  -1.0314702011774121e-31  4.0959213734939202e-31  -2.8076958581955261e-32  -1.1229288645157464e-26  -4.0323716515451735e-26  -1.0040651654993681e-25  1.4144166396083874e-27  1.3718944277787053e-25  3.9648849663453359e-26  3.2752064798973803e-25  -4.6618506212169806e-32  -1.9488476635677177e-32  -4.9129216007496738e-32  4.1451181415689969e-32  2.7719987675745531e-32  2.9967364416423917e-31  1.2241059140500308e-30  -3.1913559844122777e-31  -1.2452023072372793e-31  -3.3263404457393319e-31  5.3679861106291245e-31  -9.0511365177456235e-31  -8.6901323726878114e-31  -7.1653872350154510e-31  3.0950673409485528e-31  5.8334766930280722e-30  3.1716536141700031e-31  1.6716906386277891e-30  2.1065812929459490e-26  -1.7506027109233974e-27  -8.4070928950370180e-27  -7.7214828051857083e-27  -5.1246778128403359e-27  3.4594073981417692e-27  -2.5115994090035355e-27  1.7863619382351642e-27  2.7613655465630295e-31  -9.2468901424765259e-32  -8.4210601413892175e-31  1.1331273949950711e-31  2.2122294091700481e-30  -1.2697513619180668e-30  -2.7598477253351850e-30  -8.8030891112502515e-26  7.8612311285276508e-26  -8.7769232213852909e-26  3.6582788536546650e-25  4.3976235780256401e-31  1.6331425699262973e-30  -1.5521604694264501e-30  3.0813413219188069e-30  -4.1047686658414229e-30  -5.1121144487428790e-30  -5.1107766878254827e-30  1.2292791572696796e-30  -1.7421859893494398e-29  4.1833403168831269e-30  7.9531681631505657e-30  2.7088775797900359e-30  -3.1839225261689058e-30  -4.5241428129721598e-30  -3.5274998851365805e-30  -2.4235753644913297e-30  7.6422700824151817e-30  -6.8487398071448690e-31  3.0154035756374812e-26  -2.2394067376742583e-26  -3.3129842123838373e-26  -2.5025410176481424e-26  -2.1779546002720137e-26  9.0356238377302283e-26  -4.5944227583654196e-26  2.9456493645938919e-26  2.0716585244931511e-25  -5.8350383288692318e-30  -2.8787657584017329e-30  -4.2466449347164525e-27  -1.0752817493903849e-26  -2.5799244355001996e-27  -3.3085862753711018e-27  8.8358598264376539e-27  4.5364265840118118e-26  -1.3635336254852674e-26  6.1471111447019687e-27  -1.1648158192937438e-29  -3.8100143986200355e-30  1.1436164563763056e-29  -4.3857843327752908e-29  -5.5503297418070093e-29  -1.3661505123750939e-29  -1.3135979377344798e-30  2.0354839657403922e-31  3.7595958234610088e-31  1.5896974259612409e-30  -1.5331007155781727e-30  4.7640873557456494e-32  -3.5392816378925920e-28  3.5730916440213360e-29  1.0029359533455475e-27  -6.7674433671220760e-29  -4.6953689264679723e-28  4.6515145596626012e-28  6.5686994727484351e-29  -1.4806304887278295e-26  -1.6485240601968579e-26  -7.2536677758767690e-27  5.1915872596174487e-29  -8.7491782167091675e-30  6.4228983950313562e-30  1.7565752718543561e-29  -4.5974597456923419e-29  -9.0338437659750836e-31  5.0140940991147685e-32  4.5747719627892063e-31  -1.5245879316637372e-30  1.8744148799906061e-31  3.1847496614250337e-31  9.0966384885966093e-29  -9.4786703146968209e-28  -6.0439888286999753e-28  -3.1931352003516835e-29  -6.3313201119981101e-28  4.8344827073860849e-28  5.1258170203752365e-29  8.2732130321506372e-29  -2.6665253238964477e-28  -1.4246979344126143e-28  4.3398594220534310e-29  3.3052031186336279e-28  -1.3172631402993159e-28  -6.4351564137006529e-28  -3.2509362337049248e-28  2.1842892685917585e-27  5.0412504655360884e-27  2.0405533265079941e-27  -1.3541109101037047e-27  -1.9324537133268942e-27  -7.3984175966956365e-27  -1.6903126327921818e-26  -4.9355342084846133e-28  4.9024366647893527e-26  6.7944133414477404e-27  3.5867975725467684e-28  -2.9457240431475010e-27  -9.1117745441158958e-28  9.4223265508583785e-27  -8.6942700088081587e-27  -7.6163061810315668e-28  -3.6439449322474318e-26  -3.8240879068778607e-27  1.3380835941644029e-26  -2.6133129297014078e-26  4.7188836469887417e-26  4.1838540118032954e-27  3.1573177027158082e-27  5.9881503693471338e-27  -2.0672571781956049e-27  1.6584954416031462e-27  -1.4373791565730490e-27  4.4003944116992323e-27  3.1544460450731211e-28  -2.9129658791744917e-28  6.4501446230839819e-29  1.4392433724603807e-27  7.2003277264305609e-30  -8.2257332877650618e-30  -7.3840223154791933e-30  -8.1123288260049604e-30  1.3937858530281751e-30  6.5561265856990396e-29  1.8871918476461816e-29  8.3656676544301466e-27  -3.6969163963289757e-28  -2.4600256087701105e-27  1.1679459071586424e-27  -5.6129857351448603e-27  -1.7366214243647373e-27  8.2438389118963122e-28  -3.3356794015600828e-28  2.2714941652730879e-26  6.4832271627110803e-28  -6.4526953345329651e-29  -7.0938668740036371e-29  -6.8525572791844929e-29  2.9934048025098070e-29  3.2355483080348353e-30  1.7236415348566465e-29  1.1745208334788678e-31  2.5585587893968553e-31  3.1060791131604298e-31  -1.5836969518807782e-31  -4.6180591024572689e-32  -5.8319205610211879e-31  -5.0076010636545740e-31  2.0342379810516181e-30  3.2134810526388918e-25  -1.1576897236445876e-25  4.0383056241102585e-26  -1.0149548833346314e-25  -2.7804780867913498e-26  -2.4257862468886060e-25  2.9634417576526655e-26  3.0928632956467602e-26  8.9891920385368072e-25  6.8400558058488302e-30  -2.5992317890173425e-29  -1.0311743276852642e-29  -5.0504853813665098e-30  7.3223002143800642e-30  1.2579743811342019e-29  -1.0260332153968404e-29  4.8172756690377136e-30  8.4470668241212170e-29  -1.3275794916149744e-31  -1.6593301883859734e-31  -9.5747208112779724e-31  1.0260434209016965e-27  -1.1141091155972260e-27  -1.1025337679433915e-28  -2.5580815168404407e-27  -1.9765571664211979e-27  1.5446353066210750e-26  2.3459564750472234e-27  1.0288668900504300e-26  3.0512248239730808e-27  -2.7026084911968208e-26  5.8839393325483206e-25  -8.2414107195973681e-26  -1.4496040203627465e-25  3.4143815075915657e-33  -6.1440338713970613e-34  -1.2596841646970997e-33  1.4280818730515847e-33  4.6850853394430749e-33  -5.7706937435772230e-33  4.5289113151465606e-34  2.1332439237284367e-33  -2.4608000996759520e-33  2.1775151708180913e-32  4.4441997454286815e-31  7.4084751681215202e-33  -4.4015150558522834e-32  -5.9710137765663143e-32  3.5898836153131974e-32  3.4764940423725292e-32  -9.5698673560844488e-32  -1.4540406018680975e-32  5.9881496656355582e-32  5.5451131164719402e-28  -1.1293844641457749e-28  -4.0561962527527995e-28  1.0498481414896114e-28  1.9797156068700553e-29  2.1530886623165740e-28  -2.9650526735722863e-29  -1.2677989149930825e-29  -9.5343925763909323e-29  1.9543758400381259e-28  -8.8777285115285768e-29  1.6613759110292074e-29  -2.6444888360638583e-29  7.3595385094487854e-28  -1.2253219754984373e-29  -2.3252726767147060e-30  8.6601630272877452e-31  -7.5492334949375278e-31  1.5827875934431576e-30  7.8465394627332942e-31  4.4060367294702533e-31  -6.5577818325243614e-31  -5.9657519146489464e-31  1.5108929240127155e-31  1.5181540046036446e-31  2.9468681718372402e-31  -3.3220334004196783e-31  2.0025052435673989e-31  5.3813172159917808e-31  3.1772118831509380e-30  -8.4897662173322794e-28  -3.5417145759446530e-31  -5.3534975799018015e-31  -3.0397553445223138e-31  -1.4354927398558891e-31  7.6514393814519211e-31  2.6254947618662028e-30  2.9748759277618660e-31  -5.8454014156929180e-31  1.0575263998242956e-31  6.7870784442071802e-31  -5.4126863017504686e-31  4.5703094845375230e-32  -1.8213908741731445e-32  -4.5276382993012665e-32  -5.0961259489378229e-32  -5.4455206954322996e-33  8.5456933825780058e-32  1.7726561619199079e-32  5.1019029257023100e-33  -1.5555798891849873e-33  -5.3859492698673068e-33  -1.3691363864842476e-33  2.0170992292041279e-32  -1.2