<?xml version="1.0"?>
<VTKFile type="UnstructuredGrid"  version="0.1"  >
<UnstructuredGrid>
<Piece  NumberOfPoints="7132" NumberOfCells="32525">
<Points>
<DataArray  type="Float64"  NumberOfComponents="3"  format="ascii">-0.0551272132301288 5.041090247193045 7.584603779511452  0.5331715990528845 4.137432661354698 8.134487203580827  0.5940076978524104 4.874001989852244 8.39176583299929  0.5444135203266514 4.79575644294953 7.748907468973339  -0.06636913450389575 4.382766465598213 7.97018351411894  -0.01677495697813672 4.461012012500927 8.613041878144891  -0.005533035704369773 5.119335794095759 8.227462143537403  0.04406114182138925 5.197581340998473 8.870320507563354  -0.0776110557776627 3.72444268400338 8.355763248726428  1.143954253883432 4.550422638706014 7.913211158435225  5.504076 2.365913 9.8841  5.113623783926925 1.646428876343906 9.930721997116706  5.5194555 1.798906 9.572129499999999  5.6062395 1.8789415 10.1447565  5.708403 1.39197 10.405413  5.215787283926924 1.159457376343906 10.19137849711671  5.621619 1.3119345 9.832785999999999  5.534835 1.231899 9.260159  5.129003283926925 1.079421876343906 9.618751497116705  4.723171567853849 0.9269447526878121 9.97734399423341  5.736441 8.6418 13.853955  5.090975 8.284074 13.3518525  5.66506446060356 8.527200432999065 13.13151250538125  5.611213 8.1614965 13.7189915  5.216203 8.7643775 13.486816  4.695965 8.886955 13.119677  5.144826460603559 8.649777932999065 12.76437350538124  5.485985 7.681193 13.584028  5.53983646060356 8.046896932999065 12.99654900538124  5.593687921207119 8.41260086599813 12.40907001076249  9.077586999999999 4.625407 2.873781  9.7239739361295 5.122206682040856 3.655319086077495  9.190403482280225 4.646217712132866 4.239073862588453  9.736286093106644 4.654891894657071 3.050923872244702  9.065274843022856 5.092721787383786 3.478176213832793  9.861414732364011 4.208387819406151 3.811821521000362  9.202715639257367 4.17890292474908 3.63467864875566  9.327844278514736 3.732398849498161 4.395576297511321  9.052962686045712 5.560036574767572 4.082571427665586  10.39498518621329 4.684376789314141 3.228066744489404  13.12044921866628 3.958184266254846 2.134363478875325  12.54143422788636 3.084430463052145 2.771756952942847  13.34440681569118 3.37025991500061 2.392788112682361  12.90357131213696 3.786517246102242 3.215226329024834  12.31747663086146 3.672354814306381 2.513332319135811  11.51450404305664 3.386525362357915 2.892301159396296  12.10059872433214 3.500687794153778 3.594195169285319  12.68669340560764 3.61485022594964 4.296089179174341  13.12752890916186 3.198592894848007 3.473650962831869  13.56836441271608 2.782335563746375 2.651212746489397  12.783984 2.931067 12.959396  12.22713113664001 2.194420362214601 12.20130105233094  12.9273655 2.4269715 12.59738  12.6289455 2.9111925 12.192439  12.473907 2.891318 11.425482  12.37051263664002 1.690324862214601 11.83928505233095  12.07209263664001 2.174545862214601 11.43434405233095  12.772327 2.407097 11.830423  13.070747 1.922876 12.235364  11.67027827328003 1.457773724429203 11.44320610466189  7.845476 -0.7 4.551857  7.648714770490862 -0.247735674416304 3.905579600935501  7.89838288657607 -0.2595438115151785 4.288528528532186  7.716276770490862 -0.247735674416304 4.3871021009355  7.777914 -0.7 4.0703345  7.710352 -0.7 3.588812  7.83082088657607 -0.2595438115151785 3.807006028532187  7.587077540981724 0.2045286511673919 4.222347201871002  7.769183657066932 0.1927205140685174 4.123773629467688  7.951289773152141 0.1809123769696429 4.025200057064374  7.803341 1.595744 -0.7  7.664685953395992 1.471268530669165 -0.2510961645650914  7.729652201376918 1.590019570176822 -0.219613478808211  7.797134499999999 1.3888405 -0.26024275  7.790927999999999 1.181937 0.1795145  7.658479453395992 1.264365030669165 0.1886610854349086  7.723445701376918 1.383116070176822 0.220143771191789  7.655963402753837 1.584295140353644 0.260773042383578  7.590997154772911 1.465544100845987 0.2292903566266976  7.526030906791984 1.346793061338331 0.1978076708698172  7.632641 1.99555 3.001163  7.961532999999999 1.971332 2.113908  8.121759230602297 1.382067325601924 2.541139937272117  7.521734 1.780401 2.4300055  8.07244 2.186481 2.6850655  8.512238999999999 2.377412 2.368968  8.561558230602298 1.572998325601924 2.225042437272116  7.410827 1.565252 1.858848  8.010852230602298 1.166918325601924 1.969982437272117  8.610877461204595 0.7685846512038474 2.081116874544233  -1.2 3.61852 12.966431  -0.2857948085778305 2.817683307601343 13.60004230520481  -0.7935363085778304 2.925909807601344 12.95631005520481  -0.5697900974870189 3.42757982626734 12.93650852332612  -0.6922585 3.5102935 13.61016325  -0.184517 3.402067 14.2538955  -0.06204859748701896 3.31935332626734 13.58024077332612  0.06041980502596212 3.23663965253468 12.90658604665224  -0.1633264060648494 2.734969633868683 12.92638757853093  -0.3870726171556608 2.233299615202687 12.94618911040962  10.875809 -0.7 7.144336  10.41089517997895 -0.130784284244863 6.584591237524869  11.247624379016 -0.1192112340871452 6.276368235377599  10.8720445 -0.7 6.453246  10.86828 -0.7 5.762156  10.78271055899495 0.4500044816679918 5.716623472902468  10.40713067997895 -0.130784284244863 5.893501237524869  11.243859879016 -0.1192112340871452 5.585278235377599  11.619439758032 0.4615775318257097 5.408400470755198  9.945981359957901 0.438431431510274 6.024846475049737  12.256351 1.281044 -0.7  12.71354779829873 1.508630989691005 0.7244737005616114  12.04429929829873 1.590382489691005 0.5840902005616114  12.53245129829873 1.888496489691005 -0.2979322994383884  12.4374475 0.9011785000000001 0.322406  11.768199 0.9829300000000001 0.1820225  11.280047 0.684816 1.064045  11.9492955 0.6030645 1.2044285  12.618544 0.521313 1.344812  12.80855159659747 2.495948979382009 0.104135401123223  9.890093999999999 4.24127 2.375178  10.59840052152832 3.245317681178958 2.479739079698148  9.878933791566539 3.651837269129939 2.836971063968321  10.70229902152832 3.813897681178958 2.633739579698148  9.7861955 3.67269 2.2211775  9.682297 3.10411 2.067177  9.775035291566539 3.083257269129939 2.682970563968321  10.69113881309486 3.224464950308897 3.095532643666469  9.867773583133078 3.062404538259879 3.298764127936642  0.706125 10.404609 0.747228  1.61642343399373 10.27227548584247 0.4101572716370203  1.249437422602025 9.728333121985967 0.5780944802760302  1.268413 10.0291155 0.02361400000000002  1.830701 9.653622 -0.7  2.159735856595754 9.595999607828439 0.2410237519130504  2.17871143399373 9.896781985842471 -0.3134567283629797  1.811725422602025 9.352839621985968 -0.1455195197239698  1.792749845204049 9.052057243971934 0.4089609605520603  2.526721867987459 10.13994197168494 0.07308654327404059  2.557375 1.193606 8.065212000000001  1.849936421369301 1.447142515320888 8.189896500004441  2.132381964609046 1.764027003646987 8.354711289576596  2.32228533333801 1.234257576007544 8.674593147383536  2.08719566667602 1.274909152015088 9.28397429476707  1.614846754707311 1.487794091328432 8.799277647387974  1.897292297947056 1.804678579654531 8.964092436960129  1.707388929218092 2.334448007293974 8.644210579153189  1.424943385978347 2.017563518967875 8.479395789581034  1.142497842738602 1.700679030641776 8.314581000008879  8.250710556653278 4.628951471653523 10.51605752721284  8.276513246874025 4.088454241015662 9.54003974895447  8.95115497742645 4.418029146980542 9.631263324169336  8.729957285601543 4.076506728699655 10.32776995860989  9.20920401454981 3.524061985745788 10.13948239000695  8.75575997582229 3.536009498061794 9.351752180351525  9.430401706374717 3.865584404026674 9.44297575556639  9.651599398199622 4.207106822307561 8.746469121125834  8.976957667647195 3.877531916342681 8.655245545910969  8.30231593709477 3.547957010377801 8.564021970696102  9.065160000000001 7.505708 7.506297  9.331912080950225 7.257096335411111 6.646384192126684  8.896706080950224 7.011821835411111 7.260317692126684  9.656712500000001 7.0190345 7.206851  9.500366 7.7509825 6.8923635  9.935572000000001 7.996257 6.27843  10.0919185 7.264309 6.5929175  10.248265 6.532361 6.907405  9.488258580950225 6.525148335411111 6.960871692126684  8.72825216190045 6.517935670822222 7.014338384253367  1.421343605602355 2.233148926864192 12.31892224417628  0.7408817053141583 2.734894289699436 12.61275414541426  1.186764725376 3.209859384658468 11.98957509442919  1.544618301049272 3.05477428724688 12.81475335168567  1.667892996496189 3.876399647629567 13.31058445919506  0.8641564007610757 3.556519650082123 13.10858525292365  1.310039420822917 4.031484745041156 12.48540620193858  0.9521858451496454 4.186569842452744 11.6602279446821  0.5063028250878038 3.711604747493712 12.28340699566717  -0.735366137506767 10.82272648859684 10.12546181458761  -0.6446985387697407 10.77052599279874 10.0171916057479  -0.5545599407813621 10.63700650758661 10.1892375577572  -0.5390827155870492 10.78071175466799 10.12400682700913  -0.3427992936673313 10.73869702073914 10.12255183943065  -0.4638923420443357 10.58480601178852 10.08096734891749  -0.4484151168500228 10.72851125886989 10.01573661816942  -0.3582765188616442 10.59499177365776 10.18778257017872  -0.3737537440559571 10.45128652657638 10.25301330092679  -0.5540309400327144 10.71832549700065 9.908921396908188  1.233252181337159 12.11846431729369 2.824670572160975  0.7809444207283072 12.59818956641619 3.198440518888625  0.5948573044709046 12.25155063671482 2.848304540029038  1.060340374796256 12.54948164883401 2.795936602018068  0.9538562272692102 12.16717223487586 3.227174489031532  0.6744602732012616 12.21588015245804 3.62967840590209  0.315461350402956 12.300258554297 3.250808456899595  0.8874285682553527 12.98049898037434 2.767202631875159  0.4219454979300015 12.68256796825515 2.81957056988613  -0.04353757239534962 12.38463695613595 2.8719385078971  6.474486593152417 8.706308642066846 13.71196560345803  6.113126280396529 7.97415576492148 13.38874403601063  6.1151705 8.314761499999999 14.0570195  6.4939 7.987723 14.260084  6.8511718
[...]
<PointData  Scalars="p_O2"> 
<DataArray  type="Float64"  Name="p_O2"  format="ascii">6.8470929645142490e+01  7.8035018991446449e+01  7.2982179624205699e+01  7.7003162105732315e+01  6.9583446881561201e+01  6.4674625704000661e+01  6.4069533918677067e+01  6.1865308760640971e+01  6.8858685029106837e+01  8.3734779126438440e+01  9.9560462769152892e+01  9.9221327415188000e+01  9.9725956151019915e+01  9.9589048269399953e+01  9.9679433419303209e+01  9.9418235373853506e+01  9.9728395077391980e+01  9.9862575326303116e+01  9.9539859883105336e+01  9.9233634573960913e+01  9.9819766837985568e+01  9.9662564719752268e+01  9.9495017411090373e+01  9.9781625957089318e+01  9.9752309826379005e+01  9.9684908047690428e+01  9.9335902425550643e+01  9.9719696431849769e+01  9.9351929612103575e+01  9.9033400925185802e+01  9.9981704795578779e+01  9.9956852274428286e+01  9.9950018490619485e+01  9.9981906502192899e+01  9.9946176089258913e+01  9.9979960978355635e+01  9.9970382049290748e+01  9.9963349277658267e+01  9.9941400897850656e+01  9.9979860483315321e+01  9.9991044230689766e+01  9.9989658017362217e+01  9.9988122201643208e+01  9.9991128036385845e+01  9.9999928278576817e+01  9.9988312174632824e+01  9.9989030284420352e+01  9.9987810536389887e+01  1.0000108575529431e+02  9.9987963737230771e+01  1.0000073367665583e+02  9.9973506413744786e+01  9.9983386538397127e+01  9.9992006097431684e+01  9.9993073000526195e+01  9.9979668264437578e+01  9.9983629416108499e+01  9.9994200318305118e+01  9.9991533049930538e+01  9.9978334122307714e+01  1.0000385794731633e+02  9.9999454487510974e+01  1.0000208378590817e+02  9.9998502425431312e+01  9.9999408108423566e+01  1.0000034898264346e+02  1.0000297858795503e+02  9.9997365274565809e+01  9.9996284324161408e+01  9.9997203880889828e+01  9.9998435452837299e+01  1.0000095207591423e+02  1.0000170802377906e+02  9.9999872214785839e+01  9.9999259392482472e+01  1.0000023287074366e+02  1.0000023174077486e+02  1.0000163547207215e+02  9.9999972737069726e+01  9.9999823608422219e+01  9.9999974081393034e+01  9.9984881541668173e+01  1.0000440327852715e+02  9.9995046499410861e+01  9.9990353654552152e+01  9.9989189866290189e+01  1.0000896052188182e+02  9.9994037827361126e+01  9.9996795954265366e+01  9.9998346815143620e+01  3.9999999999999993e+01  8.0259133328848876e+01  5.5332049087885252e+01  6.3538119415595204e+01  8.3251342145758940e+01  8.9990279881933660e+01  8.5310407660164714e+01  7.7826864094385712e+01  7.3875992817940414e+01  7.2183752855455921e+01  9.9996626443313431e+01  9.9993296448616547e+01  9.9993733472255954e+01  9.9996905671367941e+01  9.9998068382737785e+01  9.9988226121655032e+01  9.9997283701840075e+01  9.9994768153520880e+01  9.9987461547489673e+01  9.9992043420838229e+01  9.9976499449940178e+01  1.0002441075132708e+02  1.0000593768570280e+02  9.9981209758826068e+01  9.9999385888318898e+01  9.9980517201593841e+01  1.0000238247711242e+02  1.0000632490741033e+02  1.0000874891920859e+02  9.9985733116140210e+01  9.9979856407098453e+01  1.0000575016141640e+02  1.0000522699031360e+02  9.9991532104804136e+01  9.9992147861186623e+01  9.9989493107545286e+01  9.9983414500969957e+01  9.9989005578062844e+01  9.9989554466834605e+01  9.8257382837351912e+01  9.8523053445832886e+01  9.8823733898717279e+01  9.9347693893053176e+01  9.9883485480842367e+01  9.9178163965822151e+01  9.9502529728220622e+01  9.9688046588480816e+01  9.9483981962951333e+01  9.9108741132316766e+01  9.9033687895890353e+01  9.7749131530704148e+01  9.7099292704537248e+01  9.7743347016952342e+01  9.6369358705544258e+01  9.5924928362653063e+01  9.4964217253049085e+01  9.3286091926474739e+01  9.4357388395317969e+01  9.5682732670878721e+01  9.9572975215500009e+01  9.9737295045166718e+01  9.9763667612935478e+01  9.9707377770770890e+01  9.9832453686363110e+01  9.9835864811834938e+01  9.9853146439446576e+01  9.9887067694677285e+01  9.9838786490612407e+01  9.9843479344212511e+01  9.9852675215769452e+01  9.9828496057383688e+01  9.9783412001001395e+01  9.9906463953038241e+01  9.9895142639474130e+01  9.9942320584924275e+01  9.9937332324431125e+01  9.9950493055696128e+01  9.9844500935890494e+01  9.9713337221089262e+01  8.9891459241105011e+01  8.3861836117182293e+01  8.4301123673002323e+01  9.0530060544855175e+01  9.3047179538504864e+01  8.7627660103686111e+01  8.7951560628090675e+01  8.0185398595056682e+01  7.9865379240277449e+01  8.3146764213524136e+01  8.3661811335057962e+01  8.4532519155879839e+01  8.8095965627971637e+01  9.0696443283725188e+01  8.4131493356962309e+01  8.7514015431411110e+01  8.8006184753523243e+01  8.4819285939046139e+01  8.4025456043037565e+01  9.1169720599817452e+01  9.1117709250762815e+01  8.6694499616622352e+01  9.2208418372979139e+01  8.9164544669284510e+01  8.7494432831316274e+01  8.3465466183576751e+01  9.3515940593409766e+01  8.7681944704446749e+01  7.8244732532150309e+01  9.9706063315305258e+01  9.9571930624685706e+01  9.9865570686690376e+01  9.9858433888409351e+01  9.9549681292417816e+01  9.9767485609415459e+01  9.9603154224163902e+01  9.9314166062814365e+01  9.9714457226723695e+01  7.2660889122334993e+01  6.1471211608844911e+01  6.3323757461343568e+01  6.5489591576353121e+01  7.0803875958881775e+01  6.9729588266531238e+01  5.5649773647310468e+01  6.3801085001711044e+01  5.9881918676873234e+01  5.2386499157397466e+01  1.0000263183963141e+02  1.0005322142284251e+02  9.9906032208052522e+01  1.0002407900189158e+02  1.0003770061481069e+02  1.0000661830247063e+02  1.0005006824110156e+02  1.0003357765734486e+02  9.9989076057522254e+01  9.9993043015858206e+01  9.9993846553263865e+01  9.9988185532562056e+01  9.9986061523879783e+01  9.9992959593314097e+01  9.9992305896312274e+01  4.0000000000000007e+01  5.8417216761669316e+01  7.9036766933898676e+01  8.1996355135902832e+01  9.2042022563630283e+01  7.9234598695441036e+01  7.9672438995055074e+01  9.1787532927293867e+01  9.2590606746515590e+01  6.6441756835320007e+01  9.9881613948311283e+01  9.9538573953951499e+01  9.9780107702827664e+01  9.9704269116415446e+01  9.9425000619051389e+01  9.9394539798286459e+01  9.9240522864804774e+01  9.9541417593148793e+01  9.9670434755082042e+01  9.6726586271637203e+01  9.0906520082282867e+01  9.4741085854282758e+01  9.6656598283205810e+01  9.6132011611846238e+01  9.0142961276175342e+01  9.3522198734658375e+01  9.0481731432191509e+01  8.6194890789051641e+01  9.8852426642574429e+01  9.7712798452940561e+01  9.8002926491684875e+01  9.7637705055744249e+01  9.9019920861663905e+01  9.8681217548085598e+01  9.9268843522483422e+01  9.8896398171114342e+01  9.6389530658737272e+01  9.8716206013557809e+01  9.9996848900118778e+01  9.9980012253874719e+01  9.9998952659379412e+01  9.9990292949777384e+01  9.9998190974284597e+01  9.9991408781545260e+01  1.0000532840074101e+02  9.9992610600297795e+01  9.9999938167618325e+01  9.8408110406184775e+01  9.6666216695312727e+01  9.5737002354586593e+01  9.7968172774946510e+01  9.8616702225371839e+01  9.8951092162485253e+01  9.8317892040335011e+01  9.7438738637176272e+01  9.5087632620605149e+01  9.2884249323475771e+01  9.9999688810289683e+01  9.9990685791917059e+01  9.9997060655093321e+01  9.9985825386549052e+01  9.9999259589944117e+01  9.9999196615018306e+01  1.0000164724185876e+02  9.9994995915046289e+01  9.9995319422073436e+01  9.9300143197838082e+01  9.8905944889765479e+01  9.8115688819375904e+01  9.8814748624758465e+01  9.9301575625230171e+01  9.9318042539316238e+01  9.8169710796571692e+01  9.8004951690008113e+01  9.7405049974026397e+01  9.7597776835241007e+01  9.9996442817013445e+01  9.9989345948824493e+01  9.9988437384358377e+01  9.9990026658489484e+01  9.9997902305764910e+01  9.9995990463809420e+01  9.9984296297030397e+01  9.9960586732832823e+01  9.9967344383475563e+01  9.9975002356857303e+01  4.0000000000000000e+01  8.3500604975309841e+01  6.2827872917494084e+01  7.3376535254409092e+01  8.4970294491087444e+01  9.3857932475062540e+01  8.3046534840581387e+01  4.0000000000000000e+01  5.9517556367050204e+01  4.6672057188514628e+01  5.2821739203534619e+01  5.4762033532256083e+01  6.6614012510906818e+01  6.7810597631603258e+01  5.8858271538049500e+01  6.9292131503099867e+01  9.5388645942829271e+01  9.0565672130175443e+01  8.5805558809031893e+01  9.1941206556247536e+01  9.4355280538663266e+01  8.7953038719843235e+01  9.2657922450916914e+01  8.1629890367095214e+01  8.4575585927606852e+01  8.8145374478286243e+01  9.9662233636734356e+01  9.7928992727985005e+01  9.9024570081733017e+01  9.8785530694738142e+01  9.8859470344501730e+01  9.7137136441859838e+01  9.8519492505914769e+01  9.8688005956078925e+01  9.7637978154537038e+01  9.6025418187536545e+01  9.9692036302374461e+01  9.9447110733664715e+01  9.9579804527821096e+01  9.9814158129685950e+01  9.9505176352771230e+01  9.9850834937270392e+01  9.9592890650145421e+01  9.9779871493460519e+01  9.9605269254771201e+01  9.9471876474152211e+01  9.9945389751342233e+01  9.9875009667330829e+01  9.9940065691422532e+01  9.9855874073665660e+01  9.9856486000157048e+01  9.9781848877890582e+01  9.9946302050274795e+01  9.9676589095593357e+01  9.9421130081811967e+01  9.9409382078860759e+01  9.9255159964237336e+01  9.9763139205082808e+01  9.9754646757394156e+01  9.9829850969268392e+01  9.9842569871297201e+01  9.8857125358071002e+01  9.9977103799951237e+01  9.9978939336167670e+01  9.9972883228805600e+01  9.9981672904112330e+01  9.9980284985488510e+01  9.9985988142818243e+01  9.9986249641176684e+01  9.9979144318512866e+01  9.9977972836226783e+01  9.5894633235148689e+01  8.5141277834295195e+01  8.8802080026238883e+01  9.2841950387916413e+01  9.1028577492572524e+01  9.3291953156708374e+01  8.9372493290800307e+01  9.1308895185451647e+01  8.7583942513484700e+01  8.4385462046503633e+01  9.8396425853588653e+01  9.8063803707627287e+01  9.7426007873190954e+01  9.7367612545349147e+01  9.8804441449322368e+01  9.9139920931149504e+01  9.7971145324417435e+01  9.7011074387523990e+01  9.6639547982494307e+01  9.6488016854259598e+01  9.8458784693906821e+01  9.8516249827053144e+01  9.8896780524616176e+01  9.8432871955051255e+01  9.7751238853117144e+01  9.8567058945040742e+01  9.8922621004380986e+01  9.7905524185142838e+01  9.9289837045879125e+01  9.9993895228780858e+01  1.0001623066566479e+02  1.0000240921862040e+02  9.9985407218581358e+01  1.0002453590133611e+02  9.9987699127803737e+01  9.9957873179287915e+01  9.7791487593196393e+01  9.3836645838989682e+01  9.7952285743005916e+01  9.6965211566491718e+01  9.5705539461313535e+01  9.3311819448727817e+01  9.1951439538719882e+01  9.6819051825554652e+01  9.7707964443091186e+01  8.9051278857356593e+01  8.3748165624273952e+01  7.2845640354859952e+01  7.8901590584026692e+01  8.1710055011024352e+01  7.9826197683533408e+01  6.9366316503457796e+01  7.6110674279979165e+01  7.0566752465755044e+01  6.4290971328522659e+01  5.8608068277184309e+01  9.9963166663571315e+01  9.9838075854330341e+01  9.9988329106707695e+01  9.9886465400036712e+01  1.0003079953793049e+02  4.0000000000000000e+01  5.1860461918816512e+01  5.7609951074222039e+01  4.0000000000000000e+01  4.0000000000000000e+01  4.9968722293774874e+01  5.5655896806711588e+01  6.9891116134708724e+01  6.4164456673849770e+01  5.9807850478641591e+01  9.9985344802340592e+01  9.9980898306806395e+01  9.9992100669914066e+01  9.9995888861670807e+01  9.9999814959310186e+01  9.9997361107903657e+01  9.9998958912797761e+01  9.9995872703949914e+01  9.9994374790044674e+01  9.9996845148403040e+01  9.9993289146662221e+01  9.9984344163497880e+01  9.9996454516427292e+01  1.0000039808771881e+02  9.9999218418033280e+01  1.0000561361233932e+02  9.9970191302634916e+01  9.9952227093309602e+01  9.9961091665357898e+01  9.9957845006957825e+01  9.9966097844830614e+01  9.9970225549594403e+01  9.9981718419626787e+01  9.9969291494026180e+01  9.9966159118478032e+01  9.9939387844138153e+01  9.5405093479409246e+01  8.5850514728611969e+01  9.3315411820962510e+01  9.2432883204560611e+01  8.7598767206142341e+01  7.8781698890030015e+01  7.7672708966585404e+01  8.8726295423402675e+01  9.0240004773975457e+01  9.9791450860006705e+01  9.9743502836210155e+01  9.9883704969182773e+01  9.9809944692944669e+01  1.0001876764859966e+02  1.0000217121261132e+02  9.9993645783583290e+01  1.0000264683464648e+02  9.9977852270552646e+01  1.0001841278082084e+02  1.0001316158995147e+02  9.9988299991339289e+01  9.9998861682629610e+01  9.9912455619773311e+01  9.9938529470730941e+01  9.9906313408113590e+01  9.9943040289730959e+01  9.9921926335774501e+01  9.9957081072647341e+01  9.9967561525046264e+01  9.9939859304911252e+01  9.9942442061116125e+01  1.0000441146043539e+02  9.9918321342513508e+01  9.9833888712980226e+01  9.9883119263118246e+01  9.9900161841439797e+01  9.9720695193684350e+01  9.9797724862280816e+01  9.9832442908642534e+01  9.9755385339030411e+01  9.9830453230992362e+01  1.0001139970909203e+02  1.0001440018341830e+02  9.9925619837743568e+01  1.0005837183561229e+02  9.9939852692170604e+01  9.9711813271080104e+01  1.0001259422055229e+02  1.0004157496295893e+02  9.9987160267721748e+01  1.0000257096015469e+02  9.9984783871202168e+01  9.9991561961165417e+01  9.9998044162321335e+01  1.0000318959753815e+02  9.9993772217720874e+01  9.9996178109030808e+01  1.0000733688652602e+02  8.5683228950778727e+01  7.9376266698094781e+01  7.8739030042308272e+01  8.2942492444296107e+01  8.2456295095444233e+01  8.5754866738282942e+01  8.6215392961646799e+01  9.5521661829528213e+01  9.3075654334715225e+01  9.5261527936779643e+01  9.0377570355600511e+01  9.6932036305087024e+01  9.2434198371294073e+01  8.7874512374786576e+01  8.5985173357580635e+01  8.5681893517267440e+01  9.9951008101630848e+01  9.9996591237507559e+01  9.9973590177113635e+01  9.9992654257042773e+01  9.9441168277669277e+01  9.8673459798882845e+01  9.9121904222647075e+01  9.9532462661984766e+01  9.9091885149234329e+01  9.9161559167303835e+01  9.8690565557695237e+01  9.9467282495353871e+01  9.9185717901378027e+01  9.9055515311250119e+01  9.7313599486739534e+01  9.8763076396261766e+01  9.8263532915056103e+01  9.8366540724460478e+01  9.8047737245750739e+01  9.8937079066535020e+01  9.8801431233294025e+01  9.8977997815717316e+01  9.9991092448008430e+01  9.9982557299629860e+01  9.9991425498542810e+01  9.9979535393520209e+01  9.9989601107775442e+01  9.9987120598948835e+01  9.9994707708091056e+01  9.9993956867761568e+01  9.9987811342832870e+01  4.0000000000000000e+01  6.0864267806100663e+01  5.7872913266670970e+01  4.0000000000000000e+01  4.0000000000000007e+01  8.2263906216743550e+01  7.2565484749660655e+01  8.5476360835643518e+01  8.6773032083729632e+01  8.6604628390645757e+01  9.9620652688733884e+01  9.9793133771286250e+01  9.9688615999193786e+01  9.9743319031805001e+01  9.9837064052608014e+01  9.9841659862313378e+01  9.9860144055627273e+01  9.9787740598665721e+01  9.9775963755760458e+01  9.9898819701090190e+01  1.0001755305281749e+02  1.0001359516095259e+02  9.9998691277070009e+01  9.9982315299999357e+01  1.0000611876538979e+02  1.0001597334998516e+02  9.9999400406782470e+01  1.0000956659504013e+02  1.0000513962935955e+02  9.9976559077724275e+01  9.9947991302140636e+01  9.9963427394718877e+01  9.9993644223806655e+01  9.9943510610471378e+01  9.9946161182513649e+01  9.9948263491034936e+01  9.9970972664121717e+01  9.9941771665081134e+01  1.0001210212617036e+02  9.9858845725591365e+01  1.0011940320416574e+02  1.0002373448134823e+02  9.9994955927691876e+01  9.9975762681169911e+01  9.9989542109105855e+01  9.9994278575059468e+01  9.9942849105280899e+01  9.9963481839591154e+01  9.9916341328569288e+01  1.0000892642183175e+02  1.0027571991108672e+02  9.9985712078211137e+01  9.9945134016939690e+01  1.0023324741263995e+02  1.0002797206023331e+02  9.9996211593061503e+01  9.9993589858367585e+01  9.9995139418260479e+01  1.0000385967607589e+02  9.9993442987777811e+01  9.9984071804211823e+01  9.9988311410890034e+01  9.9985380438833644e+01  9.9980631010949253e+01  9.9981729809270220e+01  9.8974334856618242e+01  9.4964555519785236e+01  9.6949649440762215e+01  9.7670678205295971e+01  9.7493089085640889e+01  9.6404867531768488e+01  9.7099692048577793e+01  9.5777959321779946e+01  9.4332757980944507e+01  4.0000000000000000e+01  5.6564608007884821e+01  8.1932681400227210e+01  8.2626505644540501e+01  8.9220361710015780e+01  7.6485825164495438e+01  7.7070202321207290e+01  8.8713135753380953e+01  8.8339190371539289e+01  6.2270759002887928e+01  9.9992545390834877e+01  1.0001499173617040e+02  1.0000074481602562e+02  9.9993387475505600e+01  1.0000560395312830e+02  1.0000600773408026e+02  1.0001884162030112e+02  9.9990785296220295e+01  9.9992062046506206e+01  9.9988695051902411e+01  9.8959180394067914e+01  9.6374619305424233e+01  9.7872411906471484e+01  9.7807726855615599e+01  9.7781043072754954e+01  9.6391439113262138e+01  9.6546139247539912e+01  9.6567634124302501e+01  9.6948583438009322e+01  9.6872805769805041e+01  4.0000000000000007e+01  5.5651832401771394e+01  4.0000000000000000e+01  4.9216203681544201e+01  5.5195909353982763e+01  6.5914281141399414e+01  6.1301993131714084e+01  4.9149819960367239e+01  4.0000000000000007e+01  9.4070370427911300e+01  9.5967902003051165e+01  9.7064755432350566e+01  9.7982441274774956e+01  9.4281619670118658e+01  9.5692767614966030e+01  9.7166372181280721e+01  9.6185650156370215e+01  9.8085373434336987e+01  9.5197941509375994e+01  9.6802635695800959e+01  9.6749178444497673e+01  9.7103936442453588e+01  9.7813810363492166e+01  9.6601597139814999e+01  9.6447483114484839e+01  9.4714616401394480e+01  8.4876181667480495e+01  8.5549471277658157e+01  7.7134525183412279e+01  7.7134569894449200e+01  7.7734673377215842e+01  1.0000261658960990e+02  9.9996006541851372e+01  1.0000275651648379e+02  9.9989009700748554e+01  1.0000462324305711e+02  1.0000579001332628e+02  9.1662841036242042e+01  9.2885698554748885e+01  9.5178468029576976e+01  9.2989138917694973e+01  9.4964109444996524e+01  9.2378361671214904e+01  9.4281407035401728e+01  9.3406792760934280e+01  9.4640943373861816e+01  9.9991633167577959e+01  9.9953866896342504e+01  9.9993451876197000e+01  9.9967529580433933e+01  9.9987284085569158e+01  9.9979142086075299e+01  9.9947680442247218e+01  9.7717610126177092e+01  9.8001261567466074e+01  9.8197868777973241e+01  9.6718337641973932e+01  9.9991556962465552e+01  9.9997058552445736e+01  9.9977153778454550e+01  9.9980057499469552e+01  1.0000110704298821e+02  9.9988976360161075e+01  9.9979611826837115e+01  9.9973851114928365e+01  9.9984688335648343e+01  9.9987564262790215e+01  8.1382727514966433e+01  8.2498510256920568e+01  7.2164147893606923e+01  7.9345971684626548e+01  7.8518877551203460e+01  8.0095243968128983e+01  7.0928295874246274e+01  9.3516958562270986e+01  8.2853971334332329e+01  8.6514141211470402e+01  8.6131307942374804e+01  8.9927013609357047e+01  8.9789526269352081e+01  8.6389571626170508e+01  8.2577653486755466e+01  8.7359329925234505e+01  7.8251087664637240e+01  9.5024150093722071e+01  9.1609139056807408e+01  9.1290800869216753e+01  9.2885760922114898e+01  8.5750052523553194e+01  8.9595897949035063e+01  8.7819013251012095e+01  8.8270699069165445e+01  1.0000134685243776e+02  9.9995190019027945e+01  9.9994227300522581e+01  1.0000266618013282e+02  9.9998713849347169e+01  1.0000571233646683e+02  9.9995466177221331e+01  1.0000136449900457e+02  9.9996797808282778e+01  9.9996237743520922e+01  9.9994197480538929e+01  9.9987125906314418e+01  9.9994557659577950e+01  9.9989575593907574e+01  9.9996532875626244e+01  9.9994914812605785e+01  9.9994957533953610e+01  9.9990117707598472e+01  9.9982767146855451e+01  9.9522602614219394e+01  9.9400958328669546e+01  9.9571348943231527e+01  9.9628966068373870e+01  9.9204494193257972e+01  9.9264008052659392e+01  9.9371014244196516e+01  9.9997726651493267e+01  9.9974084457836312e+01  9.9999124761603923e+01  9.9995018537216140e+01  9.9999798380771196e+01  9.9964757456695068e+01  1.0000163741870310e+02  1.0001125548323391e+02  9.9997824565333516e+01  9.9972182419201545e+01  3.9999999999999993e+01  3.9999999999999993e+01  5.4739197394977580e+01  3.9999999999999993e+01  4.0000000000000000e+01  4.0000000000000000e+01  5.5661576099245380e