<?xml version="1.0"?>
<VTKFile type="UnstructuredGrid"  version="0.1"  >
<UnstructuredGrid>
<Piece  NumberOfPoints="1229" NumberOfCells="4229">
<Points>
<DataArray  type="Float64"  NumberOfComponents="3"  format="ascii">2.90454 4.176408 33.002907  3.103756 5.530081 31.822014  1.872853508738427 5.428076532250634 30.75962691114437  1.593032580551337 6.516206925562702 32.61205706817097  16.149122 3.672678 37.782757  14.72326842306295 3.265603426180418 36.19030602550105  16.79023719230689 2.891759356658738 35.84726357452131  15.85018309259081 1.942365477292305 37.13623389180099  10.51291 7.247276 30.933645  11.21781 6.193903 32.045361  12.76567790433611 6.726706881266663 30.02045828118836  12.91539635621644 7.346261245557345 31.58454144398693  9.84933 7.007512 27.981148  9.935086999999999 6.214814 29.478909  11.77346650996178 5.355761817708007 28.29224902408543  11.77663590449198 7.248714128864039 27.75349338451578  8.108129 2.645271 39.990357  6.984982 3.542747 39.990357  8.24638 4.042 39.990357  8.63982291515892 3.266434695502355 39.05302559793218  3.830584 9.395108 22.232059  2.369615039764684 8.798508775594295 23.59068348349345  2.001508 9.569331999999999 22.30386  3.580095 8.396663 22.853495  12.96057079973496 1.812941479876453 26.39009565268178  12.888739 -0.01335700000000001 27.144411  14.117166 0.7788 27.406471  11.98849440014846 1.215305510712507 27.66121167879347  14.355167 8.837975999999999 23.110584  13.515924 7.84622 23.319687  15.10908208559399 6.812652370939583 23.67344976001854  14.18582487643871 8.297034211828585 24.98487920945236  15.879499 9.88095 27.863424  14.30091457628605 10.78207968885675 27.88434519251815  14.40276155437471 9.185214808890127 28.14947118965172  15.219549 9.679304999999999 28.893991  15.74387577604608 3.962798641585733 30.13640682786296  13.81305534626726 3.927629864853467 31.53438666031925  13.66667036831898 3.896177550827705 28.99211531395149  13.83501033384415 2.212341582116292 30.16309813245089  13.13854127723309 11.1159699495441 25.00718419066072  11.884646 12.087271 23.012318  11.16199419227807 11.26452199530272 24.07112222411918  12.5947391777735 12.92134602632377 23.84462202154605  2.948256 0.71506 35.606419  3.371563 1.591081 35.643356  2.187340417404054 0.6981458499219915 35.41513825655166  3.164067230528568 1.50156521916444 36.84247932213352  14.986993 8.247176 29.331005  15.890044 8.648165000000001 27.648249  2.392966 8.370703000000001 22.397139  2.761474 7.324936 23.250305  7.83969 11.401094 18.866152  7.970737 9.526768000000001 18.709095  8.114757000000001 10.404844 17.375065  9.661895556268984 11.13035759682561 18.38950683874881  3.096877 4.382407 27.281906  3.23231 2.627664 26.953394  3.19242 3.303172 28.793196  1.570671161331452 3.151218661002469 27.45026565361989  15.68235515128978 5.107038462132977 31.92789327171167  15.53623219459277 2.323914371400798 31.74583243969741  16.827629 2.832532 38.375504  15.498169 2.828165 38.679195  12.819673 -0.01335700000000001 20.98237  13.868286 0.614493 20.405975  12.11834098176225 1.438854593917127 20.67862708788055  13.43139265238851 0.8278001050486369 21.50060384405296  16.036409 -0.01335700000000001 29.22187  16.162457 1.275841 27.867918  16.07652774258646 1.626292970632541 29.81485955006918  17.7947458093677 1.154972348732736 29.01566754297441  7.549423 12.012113 23.769033  6.99869 10.725326 24.075588  6.102786728417343 10.66711370769493 22.86139516827776  7.900880238691684 10.42923520661422 22.99384366107185  13.67393 6.052035 36.305897  14.30375 4.77475 37.149136  13.171934 5.289092 37.735195  12.81573730019057 4.424112893797746 36.3439561539121  12.606518 13.174052 22.527735  13.021832 11.549407 22.873644  14.25640540768064 12.56220990984307 23.23308371632143  18.01968 8.454967 32.949856  19.295193 8.086316999999999 33.929974  18.281731 8.968794000000001 34.292519  18.03215578408331 6.909264043749206 34.71681820235321  2.734245 3.858826 20.164335  3.279563 3.859145 19.106361  3.759705679514101 3.986724431482681 19.5737817055754  3.397803775553687 2.784263217453935 19.34558403347455  12.39782822373499 1.286820726895444 23.28261087964833  12.0387833448112 3.275848134547832 25.1656971007822  10.92555269273064 1.289807004565857 25.03475506615327  13.886288 1.028137 24.632292  11.082023 5.254877 19.159706  11.826626 4.477274 17.576538  9.079328560553165 3.346633638265568 18.09416463301836  9.145749075111736 5.529626875822297 17.47784288742655  17.931437 2.979185 26.335863  19.211294 1.868142 26.910799  19.763979 3.399659 26.33279  18.94539176783437 4.365936833900068 27.60170749214504  0.02680700000000003 1.870593 17.696362  1.105964 3.702955 17.237652  1.272646054608914 2.784040486114587 18.88978752074323  2.631242803230095 2.478889134565614 17.74103271252647  20.181494 2.044398 28.686712  19.990976 0.812921 27.105764  20.698074 2.091919 26.45159  20.824957 0.833987 27.673388  16.147785 8.475883 34.962025  16.943253 9.100009 33.855984  17.651175 8.677269000000001 35.397923  16.43240023892961 7.608514800303325 34.06879317411522  17.37359876980976 1.131456670282053 34.71896542162882  15.390971 0.982905 34.259563  16.15041859854896 1.488589590849748 35.55512169058549  16.36272048477175 1.809719798246245 33.55709065953827  14.39545470615699 13.48350767970017 21.86701846073533  15.548775 11.302593 22.038599  15.515731 13.387015 22.341211  16.9421598273907 3.904853614691131 32.29691975608508  16.62880751980563 4.921119360212113 34.7961549877984  15.2856214380263 3.496738783935652 33.55679431253883  4.085579 7.369463 28.91921  3.676081 6.343676 30.258055  3.648543 7.739446 30.132721  1.94758104424664 7.431530975670473 29.26892093871275  16.200176 1.339491 38.725456  14.57580151043068 1.750044186216355 37.58902189782517  12.27898 3.756383 35.02018  14.2052555186122 4.565702780299599 34.85205620009433  13.03377710244934 5.663912849961119 34.51516455983888  0.02680700000000003 2.977616 29.962786  0.02680700000000003 1.650057 28.917238  0.02680700000000003 2.948839 28.317541  1.439930327651919 2.169888763670889 29.26412208392532  7.334239 6.183576 16.002455  7.657056 7.591791 16.409897  7.292536 6.316513 17.388098  9.238594066135658 7.169109933510089 17.29124498210212  0.02680700000000003 12.721975 23.610186  0.02680700000000003 11.263916 23.184898  0.638636 12.617469 21.956867  1.574672196852772 12.59506526824534 23.69351216179657  1.096317 0.638 38.714272  1.543627 -0.01335700000000001 37.520416  1.497247007359883 1.999093709848091 36.79457280715016  2.61505768474394 1.456413487593162 38.58248178757136  4.059169 7.890597 27.506966  4.794579 8.495347000000001 28.34724  3.392998903453955 8.752180887031203 28.48863606678422  10.03411894937148 9.998101402052269 25.00752535957305  10.153097 8.139186 24.969978  10.206678 8.770273 25.887905  8.971809 9.453787 24.876842  12.462471 6.276785 39.173805  11.19089661666494 5.690265697311433 38.19081731854173  12.073044 7.019029 38.541924  12.668952 6.010412 38.350685  5.320633 4.819111 21.66165  4.96155 3.922868 22.54925  4.640513588864506 2.970885365371612 20.56208987222173  6.140153261453117 3.626024844112363 21.94455348563365  8.624292000000001 13.314419 29.9781  10.325294 13.896349 29.070602  9.658740999999999 13.814843 30.080687  9.317577999999999 12.377598 30.018343  2.836463 2.373861 39.990357  2.716544125985749 3.071931995587435 37.69678046262901  1.492678151001903 3.279133597441563 38.39964187654284  3.01800398558222 4.365355149065504 38.6716008078497  12.89296476801291 9.423032441863963 26.75379499850295  10.75585804298391 9.273256976964714 27.68066330726107  12.85795082406823 10.7762854853457 28.59532663392059  11.84010943649126 11.66813327771063 27.685324453214  18.92009405781241 2.153359891910384 28.26191437282439  18.04733101439524 3.164118337908448 30.57379386139092  19.200922 1.32166 29.607376  19.661255 2.835945 30.168159  15.923925 4.568693 36.992428  17.626429 4.419434 37.510601  1.555053587185205 2.611930564471255 20.71090485837778  0.02680700000000003 2.664776 22.096937  0.637288 3.927063 21.346769  0.02680700000000003 2.274973 20.831421  0.02680700000000003 8.649812000000001 27.09025  0.02680700000000003 7.02902 26.386627  0.02680700000000003 8.358852000000001 25.485004  1.152928229686626 8.634970635087775 26.84906857541736  2.707785 3.529755 22.66572  1.479361730011364 2.897906920457269 22.96303270774423  2.814598869867977 1.650720911898391 22.28122893937234  2.784528579889439 1.700884328798009 24.04278141705315  9.685537 -0.01335700000000001 26.475393  9.757187999999999 -0.01335700000000001 25.651455  9.75328 1.502666 26.534555  10.869781 0.663247 27.020765  18.088448 0.7307900000000001 30.397224  19.106169 1.576915 31.415083  16.56499474164073 4.640513459505786 24.1349814399051  15.800555 2.937303 24.084852  14.38467493079553 3.406962300058315 24.47471038712979  14.60249628043873 4.552617141786505 23.11385209629463  10.368152 3.74903 24.848026  9.841035 3.658317 23.751951  10.794852 4.705935 24.41218  11.01500094640665 2.852050800887847 24.13076473785863  6.073363896330308 3.207151848793825 20.40096815887856  5.838818 0.850534 19.913553  4.951802232987822 1.842619381698154 21.51949065549542  5.90696 10.388982 24.410706  5.986871 11.722392 23.76726  12.925718 5.548075 21.928167  13.965431 6.569064 22.505558  13.03269640084955 5.285314324679685 24.32491085712836  2.148321 8.09835 32.058502  2.652522 8.711992 30.700006  3.018001 7.213911 31.347115  1.420592537692452 7.554093391952142 30.66119768258188  13.482901 0.72478 19.173338  13.67239 1.733849 19.913219  12.791915 2.504715 19.221054  4.644227 3.130739 17.144991  3.843421 2.525573 16.10137  4.469658 1.809535 17.599207  3.474804 1.534418 16.758986  3.524227 6.600103 27.793512  2.344479773007319 7.550003786605104 27.71580452205707  2.665436351556486 5.973670381071991 28.68403463365997  16.186552 6.123091 27.362888  17.80835750985737 5.713439298594804 25.70451587447736  16.97957939232564 4.358768274543224 26.5795476278003  15.60390334386168 5.219055710317488 25.29074162760794  10.195421 5.868438 39.990357  11.68507 
[...]
<PointData  Scalars="p"> 
<DataArray  type="Float64"  Name="p"  format="ascii">9.7261369007110439e+00  9.7244489617076706e+00  9.7280481220968635e+00  9.7339724581302285e+00  8.8685621510936681e+00  8.9080185458249321e+00  8.8404329676580353e+00  8.8797952492838146e+00  8.8831515724116468e+00  8.8873528210560320e+00  8.8747163129095838e+00  8.8784491760464483e+00  8.8870882461117375e+00  8.8833832405250668e+00  8.8815491114370690e+00  8.8831679754975337e+00  9.2944115959365323e+00  9.3670779663219772e+00  9.2831114223617615e+00  9.2570002204946729e+00  9.3269085560662912e+00  9.4436091157803013e+00  9.3923712113320441e+00  9.3986293118931563e+00  8.9001504628745121e+00  8.8951623172277845e+00  8.8758511262769684e+00  8.8949135364164729e+00  8.8437973511761321e+00  8.8722462948450556e+00  8.8361084381977282e+00  8.8598264602611678e+00  8.8465620577803801e+00  8.8594110157871526e+00  8.8626876728931805e+00  8.8608995427717172e+00  8.8387351470524820e+00  8.8646453363913835e+00  8.8644842374227188e+00  8.8596780438593399e+00  8.8778784232385899e+00  8.9153029433821711e+00  8.9295450869318351e+00  8.8844296937140594e+00  9.6238619951378954e+00  9.6141253317864113e+00  9.6451257397049748e+00  9.5956048354078405e+00  8.8654960588498888e+00  8.8443202902465572e+00  9.4416226145231850e+00  9.4987661330836382e+00  9.0276317620791549e+00  9.0200821496820822e+00  9.0118245478995807e+00  9.0047237030479010e+00  9.6516615142529947e+00  9.6147322232484953e+00  9.6884568000006031e+00  9.6645555804589929e+00  8.8472210570725842e+00  8.8431620514656473e+00  8.8401312807953136e+00  8.9155661471814458e+00  8.9915931890497749e+00  8.9888397259744295e+00  9.0008116932690019e+00  8.9774775545224319e+00  8.8310863025417436e+00  8.8277520660329092e+00  8.8317458188424052e+00  8.8015827001867635e+00  9.0494398979957467e+00  9.0992618130303562e+00  9.1512397072739429e+00  9.0491150121436696e+00  8.9466784306846385e+00  8.9457628424869657e+00  9.0283144873039642e+00  8.9859404860825496e+00  8.8730341680611264e+00  8.8745942404960356e+00  8.8562949130826798e+00  8.8104003661926580e+00  8.7699306898128579e+00  8.7885176741968909e+00  8.7892104421391863e+00  9.2805278158179387e+00  9.2446811219742866e+00  9.2261035470388659e+00  9.2469760849197637e+00  8.9617386997567916e+00  8.9221425755160553e+00  8.9580196714873299e+00  8.9231027462939956e+00  9.0250590335997511e+00  9.0223816086392858e+00  9.0527548951020034e+00  9.0377203770195997e+00  8.7826491808312888e+00  8.7476435589287416e+00  8.7181118375211604e+00  8.7492780652535984e+00  9.2846562355254108e+00  9.2635573720902364e+00  9.2956506460535291e+00  9.2517516879602368e+00  8.7401262621605635e+00  8.7277851587054887e+00  8.6840087920670648e+00  8.6986179788304554e+00  8.8301603997020273e+00  8.8217580861402887e+00  8.7865093703685169e+00  8.8312588240233243e+00  8.8329869475478944e+00  8.8531567569317637e+00  8.8568501030308653e+00  8.8407268364712976e+00  8.8489317464741610e+00  8.8461075066621788e+00  8.8469045103443520e+00  8.8295756147678777e+00  8.8342169096670240e+00  8.8590047364269484e+00  9.6339143228648538e+00  9.6894810999998651e+00  9.6600225968107587e+00  9.6714653438821490e+00  8.8752275361449993e+00  8.9346826983135781e+00  8.9593714102041062e+00  8.9005219963027269e+00  8.9224102110370573e+00  9.7737282010062412e+00  9.7315222166480364e+00  9.7364314144884574e+00  9.7127451757045478e+00  9.0470911581209386e+00  9.0298999536788056e+00  9.0460607482046367e+00  9.0228114276847702e+00  9.3110942467457924e+00  9.3685418590411658e+00  9.2644069105162004e+00  9.3001839152668602e+00  9.6098973418090221e+00  9.6164185156335442e+00  9.6457847727057899e+00  9.5852199672816880e+00  9.5792448953964708e+00  9.5748909043916797e+00  9.5936762751189200e+00  8.9395956866967907e+00  8.9450757082992407e+00  8.9158144164500008e+00  8.9702107750712177e+00  9.1187056864147475e+00  9.1213153934940880e+00  9.1287769973686181e+00  9.0903319694588145e+00  9.1448879968317307e+00  9.2010098448215487e+00  9.2108221125795620e+00  9.1456048652397737e+00  8.9042793151048265e+00  8.9008414805451110e+00  8.9049857061578344e+00  8.8987269666410675e+00  9.5678049427117493e+00  9.5934740297026853e+00  9.6172940627577379e+00  9.5672920698161779e+00  8.8777900179101863e+00  8.8929576580192400e+00  8.8744443983527468e+00  8.8844262535605552e+00  8.7675227437588141e+00  8.8084223940407966e+00  8.7880256647589352e+00  8.7868486247737909e+00  8.8652468592838183e+00  8.7948155389772342e+00  9.3365222426710215e+00  9.4361683494656141e+00  9.4157574403333388e+00  9.3633072124792758e+00  9.6109032093777227e+00  9.6546499840597537e+00  9.5773776936831609e+00  9.5778678126239782e+00  9.4072078605235490e+00  9.4581386626830604e+00  9.3461790823693001e+00  9.4329570759792780e+00  8.9605146209381772e+00  8.9713554019554262e+00  8.9456003883467208e+00  8.9195715125926096e+00  8.8123573734634260e+00  8.8123287272182171e+00  8.8083104925912146e+00  8.8531330043647429e+00  8.8845888395944286e+00  8.8723876650775040e+00  8.9500757886209872e+00  8.9939628503360343e+00  8.9479707156968420e+00  8.9630838427790422e+00  9.1454692314486330e+00  9.1781401031392438e+00  9.2244978303634877e+00  9.2173453760675876e+00  9.1686234752919020e+00  8.9294623786429366e+00  8.8649462366014848e+00  8.8995593132295028e+00  9.7214082800138986e+00  9.6735275276206849e+00  9.7059362305609458e+00  9.7121693082071232e+00  9.0092270277807014e+00  8.9952925886935571e+00  9.0109738217141135e+00  9.1940699847195440e+00  9.2294938859177975e+00  9.2123368855338175e+00  9.2389255468506590e+00  9.6350997449940703e+00  9.6175994053514309e+00  9.6730556017696703e+00  8.8219276869006080e+00  8.7717774257878478e+00  8.8015868513482598e+00  8.8338933537915167e+00  9.1786142625724079e+00  9.1200649302252774e+00  9.1523743206335748e+00  9.0198011736301442e+00  9.0041063147765374e+00  8.9992733472589617e+00  9.0345534600268866e+00  9.2874662236194521e+00  9.2794302920516039e+00  8.8242315832749103e+00  9.0012495835637161e+00  9.7775056869535533e+00  9.7145300515538970e+00  9.7328847619523895e+00  9.7475151379376648e+00  8.8772809345619912e+00  8.8849339763285755e+00  8.8774741192595865e+00  8.8761873962777802e+00  9.0815092520094058e+00  9.0334286882840420e+00  9.1026692545890029e+00  9.1056216884075756e+00  8.8601647617382184e+00  9.5403230638510870e+00  9.4501055093599913e+00  9.5402060805223741e+00  9.5441533059707471e+00  9.7639882375686007e+00  9.7308553430252189e+00  9.7122590174230954e+00  8.9064220505612539e+00  8.8608254852212340e+00  8.8657942936805441e+00  9.0770184969698633e+00  9.1081036921577390e+00  9.0940727910869210e+00  9.0201308518875507e+00  8.9925191390070012e+00  9.0050005871351555e+00  8.8727532208360778e+00  8.8842483091823023e+00  8.8745795279859472e+00  9.0219609238898588e+00  8.9734422875791804e+00  8.9587733306762569e+00  8.9603856661055836e+00  9.6651689443502278e+00  9.7200010610073342e+00  9.7274702734846699e+00  9.6993207459884410e+00  9.7216994904301011e+00  9.7344594481328155e+00  8.9179017032422507e+00  8.8830499361900781e+00  8.9057857418800843e+00  9.2047397501362909e+00  9.1053073632750454e+00  9.1551038736929247e+00  9.0749161852366296e+00  9.3353517559707893e+00  9.2490783109641903e+00  9.2845503476403781e+00  8.9286578524388354e+00  8.9258215556029192e+00  8.9829567007972049e+00  8.9221481296472849e+00  8.9597333682686724e+00  8.9344721530066309e+00  9.2059594258791737e+00  9.1733693311240501e+00  9.1424004976479782e+00  9.2084437295943822e+00  8.8323260371082100e+00  8.8314494190707400e+00  8.8396350060238067e+00  9.2905596148587204e+00  9.2389223716239641e+00  9.1730189623105112e+00  8.9715791541443028e+00  8.9637871153291506e+00  9.0081763425432211e+00  8.9482975104101410e+00  9.0144832728362907e+00  8.9907315069363118e+00  8.7159069503601980e+00  8.7733652695597932e+00  8.7711846662834763e+00  9.5786836614792925e+00  8.7817960989247030e+00  8.8122294923295357e+00  8.7785878016715593e+00  8.8229613474444530e+00  9.0118227331120604e+00  8.7136919607754297e+00  8.6402678690807573e+00  8.6371730062312988e+00  8.6610318454949144e+00  9.2719853196431288e+00  9.3081326281139081e+00  9.2854156841417481e+00  9.0252930587017790e+00  9.0174015458831640e+00  9.0017533774170335e+00  8.9566177477270017e+00  9.4709959357577969e+00  9.1099006911075779e+00  9.1559044029759900e+00  9.1005735159879979e+00  8.8860172546460081e+00  8.8876303543575705e+00  9.6868553827869484e+00  9.7261136332882767e+00  9.6449055792354557e+00  9.7041762467139900e+00  8.8968274058569250e+00  8.8923544465276656e+00  8.8922921121726155e+00  9.0291662839967923e+00  9.0380557480634440e+00  9.0282209081469897e+00  9.0252227908457705e+00  8.8654512069912439e+00  9.0137925259379088e+00  9.0209246545897166e+00  9.0334512332055752e+00  8.8514916659230245e+00  8.8529418457155700e+00  9.6784142369053843e+00  8.9040895789942738e+00  8.9201965485224761e+00  8.8880420640874807e+00  9.6224601720897436e+00  9.6000349725395679e+00  9.5671349603791924e+00  9.5297991820414758e+00  8.9965474376354670e+00  8.9755492501405030e+00  8.8962710477366063e+00  8.8993983874466505e+00  9.1946011668610073e+00  9.1803649143040182e+00  9.2280444793421612e+00  9.2360584810697297e+00  9.2291989514364534e+00  9.2476843602619461e+00  9.1940696557879669e+00  9.2691268929781003e+00  9.2855693468567182e+00  8.8798613445172538e+00  8.8679581086354187e+00  8.8749087800073827e+00  8.8756309636609245e+00  8.9274008703351768e+00  8.8824031302681536e+00  8.8969985986154381e+00  8.8602721576628145e+00  8.8750569274595179e+00  8.8753828139303383e+00  8.8464103732854866e+00  9.1806823886508280e+00  9.2708186437905340e+00  8.9778756607775687e+00  8.9001104528402752e+00  8.8801557234844850e+00  9.0989098358605496e+00  8.9078329057682808e+00  8.8935475468691454e+00  8.9038896227488795e+00  8.8306950295233406e+00  8.8357601931552061e+00  8.8330999163678303e+00  8.8271132442624332e+00  9.4854149330847459e+00  9.5341989559670175e+00  9.4190805423480430e+00  9.5191936740112446e+00  9.7191533609033360e+00  9.7445967968726794e+00  9.7153183566917356e+00  9.7039269222003242e+00  9.6684672527639588e+00  9.6221522442093566e+00  9.6547168731513828e+00  8.8185162395163665e+00  8.8091367463799539e+00  8.8886583521617286e+00  8.8747434111829460e+00  8.9012610855195007e+00  8.8787909478042781e+00  8.6639234219289740e+00  8.6357702656904802e+00  8.7030929710410465e+00  9.7075727599741786e+00  9.7507945609351712e+00  9.7113004623817893e+00  9.7400690032287134e+00  8.8922042684192704e+00  8.8837547293845436e+00  8.8802033514941723e+00  8.8735070624941699e+00  8.8037090541515806e+00  8.7474030852154474e+00  9.4711604266937162e+00  9.3647945180545555e+00  9.4403587262099258e+00  9.3561892890628435e+00  8.9701897991682955e+00  8.9113542551972440e+00  8.9449209923788953e+00  8.9106172430970485e+00  9.5569507022324398e+00  8.7829381917461813e+00  8.8188327159240494e+00  8.8176608789610480e+00  8.8139867844018980e+00  9.2462923501804326e+00  9.2733044092294428e+00  9.2209398150496966e+00  8.8427301362913386e+00  8.8553613328892080e+00  8.8055732110177019e+00  8.7993877340903062e+00  9.2954473424155122e+00  8.8206314453077841e+00  8.9314596571919207e+00  8.8730546260738290e+00  8.9189948582801346e+00  9.5168652261341435e+00  9.4805162205036311e+00  9.5591883644693514e+00  9.5562115841614954e+00  8.8668841565851189e+00  8.8789245082194448e+00  8.8608557468068962e+00  9.1146398028234437e+00  9.1939113109194928e+00  9.1880325659472497e+00  9.1714710171159215e+00  8.8447061476255548e+00  8.8576180546095884e+00  8.8272231394468488e+00  9.5521841296919057e+00  9.6033157315240434e+00  9.6000824375667015e+00  9.5686915046208458e+00  8.7953155860985355e+00  8.8188235632505378e+00  8.8295789401945406e+00  8.8249612637019297e+00  8.8200461093993834e+00  9.3342872766825504e+00  8.8709193756924680e+00  8.8921222929176054e+00  8.9090783786883279e+00  8.8874115874202122e+00  8.6429942244174089e+00  8.6247145440095956e+00  8.6787626106889668e+00  9.0142326461486402e+00  9.0325040965120511e+00  9.0530243726614490e+00  9.0655810833443500e+00  9.0868963775073848e+00  9.0518188780719182e+00  9.0301667213841181e+00  9.5779529980453404e+00  9.5381529883937439e+00  9.5330704705568792e+00  9.5655948475872403e+00  8.8193780268706163e+00  8.7983899838808526e+00  8.7864228675800611e+00  9.7438237875040130e+00  9.7134978460927766e+00  8.8767531064364853e+00  8.8681264472953139e+00  8.8841849191349720e+00  9.3392328774001268e+00  8.8071156286312178e+00  8.9855685470450357e+00  8.9695322594677709e+00  8.8737684393484386e+00  8.8007040431660162e+00  8.9153894654383627e+00  8.7814255173954034e+00  8.7577549915129893e+00  8.8321992078459406e+00  9.6192250060039068e+00  9.2287941185111553e+00  9.2376853812113424e+00  8.8413539718500029e+00  8.8407810465515499e+00  8.8648778990844175e+00  9.3437596399988507e+00  9.3720928335142020e+00  9.7334806416696047e+00  9.2251067404046836e+00  9.1065452310235706e+00  8.8404890549376756e+00  8.8918332625942416e+00  9.2760714961498305e+00  9.6811817196665864e+00  9.5820487051767849e+00  9.6257070387954649e+00  8.9126688368621370e+00  9.7201619518716953e+00  9.6448857230360474e+00  8.8189437434573819e+00  8.8731786800396506e+00  9.1062491860888422e+00  9.0671434984226504e+00  9.5171340009571619e+00  9.5146234244679899e+00  8.8588518120294477e+00  8.8702931076374156e+00  8.8896108689757956e+00  8.8745266901127255e+00  8.8662778756565128e+00  9.7903737614412361e+00  9.7713146916223064e+00  8.8664818752711945e+00  8.8680261473743816e+00  8.8728413054495601e+00  8.9477307706159923e+00  9.6031411381486560e+00  9.1001860298970243e+00  9.0722971103024417e+00  9.0597263883566583e+00  9.0771025681294688e+00  9.2964268112459063e+00  9.4159401504829692e+00  9.2827639158333586e+00  8.8596547583908460e+00  8.8510795127509976e+00  9.0510673276378686e+00  8.9880719791304049e+00  9.2010954062754511e+00  9.7662039402450347e+00  8.8454905561112085e+00  8.8374797966831888e+00  8.8436338060530364e+00  8.8493810447736614e+00  8.9977171567165808e+00  8.9631076663427169e+00  8.9531300511220238e+00  8.9414511584399037e+00  8.8439627123452329e+00  8.8100636627585800e+00  8.7963648915569017e+00  9.0306410269119777e+00  8.8765640044804623e+00  8.8552062991685929e+00  8.8901906423390731e+00  9.6854194565335945e+00  8.9617500638874628e+00  8.9553352108408895e+00  9.0065327788860010e+00  9.6444060376749121e+00  9.6517112868013388e+00  9.5962106225969084e+00  9.6194612755275930e+00  9.6155868208356026e+00  9.6058646599549498e+00  9.5350464676061559e+00  9.4557076779536136e+00  9.5315585102259526e+00  8.9747847654305648e+00  8.9292341017485892e+00  9.0313026569630974e+00  9.0274937264412287e+00  9.0574748257332232e+00  9.0601020205023097e+00  9.0422486964006872e+00  9.2849370332063987e+00  9.3030282159963260e+00  9.3329658558184132e+00  9.2889390238649643e+00  9.6221969405543994e+00  9.5704394130531707e+00  9.0100946778021331e+00  8.8596232616801949e+00  8.8429548992106977e+00  8.7635877245957357e+00  8.7875028587176516e+00  8.7495279686863316e+00  8.9956039131957510e+00  9.0243044844721485e+00  9.0185402561677410e+00  9.0031866206616424e+00  8.9354265332624312e+00  8.6651267677229278e+00  8.7129894845924145e+00  8.6639591850295030e+00  8.9920220696174500e+00  9.5699454144775000e+00  9.5668284847884610e+00  9.5712625779605567e+00  9.5694434542255049e+00  9.7183823173755108e+00  9.6588464091208834e+00  9.3670948033210291e+00  8.6917044837519786e+00  8.7461524801131834e+00  8.8848191167950024e+00  8.8940076869919231e+00  8.8791781420188887e+00  9.5932298966712057e+00  8.9725111255093957e+00  8.9277902602086598e+00  9.3264701264054537e+00  9.3560213999301531e+00  9.4368322064825758e+00  9.4286338939904546e+00  9.5574991836510694e+00  9.5782924885181888e+00  9.0078564053013928e+00  9.5812840313674066e+00  8.8251480548414349e+00  8.8253058219244007e+00  8.8376896336678197e+00  9.6694387701594380e+00  9.6200994309517611e+00  8.8441719535866188e+00  8.8245928492331327e+00  8.9875374806632031e+00  9.0668387292034218e+00  9.0130055042470545e+00  9.0664239250563554e+00  8.8317390407576593e+00  8.8693866479036476e+00  8.7243028794449469e+00  8.8045165563095154e+00  9.2520903212173344e+00  9.3035632770094612e+00  9.2460305485501184e+00  9.7440068319158009e+00  9.7636158811217211e+00  9.7261693469110782e+00  8.8222058164274895e+00  8.7865426543545304e+00  8.7896383867457946e+00  9.1291501406896902e+00  9.1356456103219355e+00  9.1088001501730922e+00  9.5627402672645996e+00  9.6469831875901395e+00  9.6287091722417717e+00  9.7034876810190482e+00  9.7365474831745367e+00  9.7301490117439808e+00  8.8411785526882305e+00  8.8561458037969985e+00  9.2240392595084728e+00  9.2420856009920822e+00  9.1631679132901436e+00  8.9420917110572589e+00  9.2026470917230316e+00  9.5896115689621961e+00  9.5384227704651803e+00  9.2040817420206320e+00  9.2033073973145338e+00  9.2038233698039882e+00  9.2065230387659867e+00  9.5683284215007447e+00  8.8665063056627567e+00  8.9021280447548961e+00  9.1631924357962102e+00  9.1845648189280666e+00  9.1876282300960721e+00  9.1922526029603837e+00  9.7362687333299238e+00  9.6636900645700461e+00  9.6595600122792487e+00  9.7018283850126910e+00  8.7768416983289423e+00  8.8177853609537120e+00  8.7965798754331122e+00  9.7065657633872267e+00  9.0624119797665337e+00  9.0729408111593983e+00  9.5800371122542884e+00  8.8523131641204564e+00  8.9054098765197995e+00  8.9227767530080939e+00  9.7320887418904150e+00  9.7384348655805315e+00  8.8855034279105904e+00  8.8331018914956463e+00  8.8537579601375320e+00  9.7029591072910915e+00  9.6823821778660424e+00  8.8423852396792562e+00  8.8437406283321707e+00  8.8521054498274889e+00  8.9999739519884976e+00  8.7987161824506224e+00  8.7672673509576153e+00  8.7924243876294188e+00  9.1960020851285567e+00  8.9662306301859012e+00  8.6544244909260613e+00  9.3833182949017200e+00  9.3676598466856245e+00  8.9725801564993066e+00  9.1904047026449973e+00  9.1477754643851696e+00  9.2245575991690352e+00  9.2029517972657136e+00  8.9191299248280558e+00  9.3225568574437503e+00  9.3992506212036346e+00  9.2263515516173378e+00  9.4450030454300364e+00  9.5090851766237865e+00  9.2014382816230533e+00  8.8412212273143069e+00  8.8513990634615318e+00  9.0487332095778292e+00  9.1629184787399574e+00  8.9166256881197210e+00  9.2737279764403091e+00  9.1996855144687508e+00  8.8919933299620286e+00  8.8543576227997782e+00  8.9071020432473880e+00  8.9028919538322189e+00  8.9079336772772493e+00  8.9008889650235794e+00  9.5425267093983859e+00  9.5907235344066368e+00  8.8971221917866607e+00  8.8994728486939714e+00  8.9008637232870598e+00  8.8991549894119117e+00  8.9813514238016214e+00  8.9610871410196928e+00  8.8119886794030080e+00  8.9005141069394416e+00  8.8878651957560848e+00  9.0635341522985229e+00  9.1135418061163858e+00  9.1278495451121593e+00  9.2042424752395409e+00  9.5065675407655608e+00  9.4552444424386977e+00  8.8242194054170220e+00  8.8147965913884061e+00  8.8690311557755717e+00  8.8449745426329880e+00  8.8282281471681348e+00  9.5459924447780207e+00  9.5646110612717905e+00  9.6707808315541754e+00  9.7106285670067933e+00  9.7113192305559881e+00  9.0218654284936797e+00  8.9078045127152716e+00  8.7984277604842820e+00  9.0817326196187764e+00  9.4220820275573605e+00  9.4790294868930260e+00  9.4592330144205512e+00  9.5196269359365999e+00  9.4785646777008434e+00  9.5182763995423141e+00  8.8051662146133634e+00  9.2831518075423407e+00  9.3945796607377385e+00  9.3138532053863763e+00  8.7904098370724224e+00  8.7751723969940958e+00  8.7394412493377960e+00  9.5934635106883555e+00  9.0414291372431332e+00  9.7706229544621568e+00  9.7795215204249946e+00  9.7508887861490088e+00  8.9951200002517204e+00  8.9754327731296346e+00  8.9761912045896288e+00  9.0137622340757719e+00  8.8312496047754596e+00  9.0340561292221455e+00  9.0346277195366813e+00  9.0267614876664268e+00  9.0278077800413143e+00  9.0177696513154828e+00  9.5863728892342674e+00  9.6198251899627536e+00  9.5848548409536836e+00  8.9566606722001634e+00  9.0641350017370019e+00  8.8355000813808129e+00  8.8666479345087854e+00  9