<?xml version="1.0"?>
<VTKFile type="UnstructuredGrid"  version="0.1"  >
<UnstructuredGrid>
<Piece  NumberOfPoints="1306" NumberOfCells="4382">
<Points>
<DataArray  type="Float64"  NumberOfComponents="3"  format="ascii">36.62082171204842 27.8127849200591 36.13850171254575  35.133984 28.948254 35.287773  35.09377430707337 27.21605231542388 36.32776574507508  35.49711158292504 29.01535721010175 36.79523341230945  34.727505 8.761358 28.181412  36.230503 8.004273 28.035908  36.20105141160379 9.655168503878997 27.05782333903771  37.05855570888922 9.143239546835588 28.7957531040404  37.949352 37.367817 30.74501  36.569382 38.303696 30.363506  37.096951 38.137836 29.41184  37.18171292059583 36.42405258432928 29.2215403952366  33.732788 18.695942 37.220341  33.35540552401056 20.74781699009997 36.87973407110198  32.24308519422645 19.11029030149711 36.22461644124984  33.694054 19.832645 37.892502  26.315817 3.982372 39.332775  27.599375 4.383019 39.990357  27.58300390867939 2.795118367817658 38.30617708128289  28.87458468448428 4.307851879040236 38.4435994241211  38.133236 23.832748 37.085537  37.24768686096579 24.69261041211738 35.96842440675156  36.4897276634056 25.30990806411723 37.73183746080861  38.45995747796422 25.5658858520423 37.30637268987511  23.727428 8.835241 39.990357  24.795902 7.25046 38.957478  23.162247 7.105966 39.014565  23.57434325475165 9.000645388631202 38.07843194146434  21.235252 1.307153 39.990357  22.538738 0.695649 38.940804  20.639017 0.6159210000000001 38.206322  20.48744366509122 2.629695698920639 38.59326174240199  37.279232 24.819668 28.961367  38.54130521052253 24.56614868561093 31.38826562161311  38.33652209870549 22.66262965472055 29.63475954978686  39.95923699999999 24.817934 29.238529  33.95882 12.380974 25.74259  34.900417 13.515557 26.937126  34.220669 11.723448 27.648743  35.55281928766212 11.44620511560445 26.12179283379933  39.95923699999999 27.031462 34.171627  39.95923699999999 27.508234 35.542397  39.95923699999999 28.533052 34.932079  38.58446677489688 28.46149289546959 35.32983508011048  33.462215 26.79608 36.530621  33.897346 27.022236 35.615894  34.09821304170267 25.93854317484353 36.26407209188564  38.265579 28.255939 37.698914  39.247765 27.011547 37.83308  38.045311 26.881899 38.031525  38.5533824412371 27.23998406201759 36.67764592029476  28.28807373383377 13.49579096673875 32.84474124294095  27.290699 12.759163 31.179472  28.298815 12.903837 30.984324  28.13751973518968 11.71026010806883 31.73371741403241  32.03872703268765 17.75815326480091 32.73820068203824  31.56958963959172 17.71920107760321 34.95177624414119  32.36760443688479 19.37041740524739 33.76845498604773  30.56175945217675 18.9971915808008 33.43469838985521  28.705898 10.335938 35.168785  29.816177 10.938348 34.575485  28.673845 10.173727 33.999218  28.05134429106204 11.67204946717867 34.87214406759188  31.72779359734088 22.00204747310697 36.54483607746737  32.886925 20.923319 38.462288  33.63736929991997 22.65435760023441 36.74563578074738  32.34679 21.985481 38.766796  26.614618 10.881027 39.990357  27.409657 9.263548999999999 39.398373  27.24327126892229 9.817335996067126 37.70662796560374  27.98234874397778 11.27788221252549 38.70361233348778  35.306213 38.001163 35.715775  34.911247 38.556973 36.989162  36.15678285920916 38.97468022528037 36.69949178999137  36.05928482854232 38.92670023078949 35.61841070173521  36.510223 39.248024 34.093788  35.785709 40.003617 34.790054  35.20499576380831 38.72257295882532 34.11704855101149  28.154829 5.388969 33.965862  25.86339869709138 6.149819401226686 33.59340898363622  26.52290276609117 5.077670477286738 35.39756701259837  26.41130585203724 7.493997705671475 34.70529868406999  39.95923699999999 28.406418 33.45937  38.2561164443833 27.65802525904208 33.20155962302857  27.17363707100178 13.80598071958275 34.73124428154895  28.66374631921208 13.45480856006256 35.502294338688  26.32867622651415 12.55819146253374 35.75869553804386  33.62254529472886 14.92865752345665 32.80806568508215  34.38660377831111 14.94995717686327 31.07821058419421  34.17658941579657 13.56169451682123 31.90395438525047  32.69573522357092 14.60460425539633 31.93325867970119  38.07669812612395 36.31267634809763 38.10094815856051  38.72649430205787 34.69612535506707 36.69300652261067  37.324409 34.695953 38.034317  37.688457 35.694309 36.621506  27.347046 3.946131 32.612373  28.219015 5.139935 32.708256  28.036272 4.072453 31.572989  26.51088940061191 5.449310012718981 31.29611645745178  37.546574 8.048283 27.769197  37.402382 7.583887 29.032631  38.803787 7.976573 28.510002  38.749813 39.298771 38.568783  38.956982 38.390991 39.295425  37.32099843550208 37.68791811978274 38.79430981989098  38.58423811373087 38.04891332257404 37.46821379992441  37.848251 34.038269 36.176941  37.271927 33.075912 35.516087  38.79923225703111 33.57059314302987 35.24041664331909  38.43031934778163 31.93048221564127 36.1182246831824  26.24228520852094 4.086211330696111 37.47597715613198  25.81251735132692 1.76798991749219 37.23946213247029  25.99394432742299 2.389771660531963 38.73969209196266  37.190998 14.242632 31.223286  35.943092 14.502272 31.92523  35.86669466877547 14.72731496707851 29.85278068024012  35.31308313036062 13.15751189396104 30.39798971878442  37.06670088748341 38.81049819480323 37.96376226245881  36.112877 38.860817 39.990357  37.915165 38.985039 39.990357  37.184555 40.003617 38.576702  38.56933054512754 6.800926044310161 30.72389955311796  38.188908 5.282902 29.523901  38.58383858008845 5.131501725264576 30.81235851566306  37.407551 6.230077 30.130457  39.95923699999999 32.376251 32.346836  39.95923699999999 33.694656 32.787071  39.02019005168103 33.79807269146184 31.32083228889712  38.81037776918829 32.50555120619597 32.03216145956394  33.481281 15.794911 35.848255  34.052612 15.386894 34.300491  32.6019832158516 14.05910567574976 35.88978301144692  31.92142654770662 15.86163673369643 35.26788520504912  39.95923699999999 27.249722 30.782108  39.236717 27.609564 29.030506  38.269352 27.797874 29.503315  39.350365 28.308977 30.015675  39.308876 31.9576 30.872873  38.95315999791283 31.71543659279923 31.72571753157906  39.310738 31.430229 31.373255  39.386013 32.364967 30.968399  28.81151 7.50783 38.290119  27.51997600103251 7.503177070046945 37.89107867154952  29.109997 6.358413 38.503403  27.88378 7.329907 39.072365  32.566353 36.128742 28.820694  33.893066 36.890259 27.850742  33.15730014802761 38.33084370515958 28.70523726346005  33.3113333784832 36.24082796722047 29.85787262423269  34.124744 10.05992 27.883242  34.38873562697281 8.967617359176661 26.92315208476565  29.309536 4.606772 36.029114  29.72506 3.25594 36.232712  28.31757182815704 3.131416595107289 36.50977775725433  23.959417 5.847709 38.612427  22.627432 5.821682 39.122414  22.62880125732515 5.241752043228775 37.67335728015745  24.642944 7.800531 34.115471  25.463104 7.360107 32.804066  31.69956254248148 14.44667297204943 33.33556807518377  33.22960131290565 12.95845390158515 33.56011460732299  34.22435 32.77919 37.482849  35.380554 32.000175 36.687862  35.377224 32.514099 38.459312  34.83713789109525 31.21144035649444 38.10708781275954  19.331896 6.950016 37.73209  20.25189488448597 6.610723253897681 35.95933933273123  20.48039668878346 7.746026545857105 37.74818777504506  21.28659668259365 6.939187716109648 36.67906938352133  37.655544 37.61237 39.990357  35.526581 23.355228 39.315567  35.342182 24.269997 39.990357  35.43939290172619 24.36461955196412 38.38946862684262  34.33292994534688 24.64619407522975 39.11767829490827  37.90225815513202 26.18331142036168 34.90224734284544  35.404472 25.580954 33.15303  37.86231082529159 24.42518222585553 33.46545113094012  35.86507587758772 24.23367487058596 34.6525775366382  39.95923699999999 26.646866 29.325926  23.641129 11.802317 35.702709  24.882618 12.017656 35.162289  24.349495 13.12237 35.126312  24.62371026401215 12.69674720141139 36.81772324188206  37.443455 27.659792 37.842388  35.57246968506293 27.73587654580126 37.8129363184791  37.04682675353794 26.50919059711054 37.10706899223714  37.50816 9.499226999999999 36.304531  39.04343 8.941055 36.435223  38.657623 10.319695 36.326557  38.4780181254022 9.002724445734884 38.18861174115882  34.725277 29.805771 35.818096  36.05207226271746 29.48956390157872 35.33061363242246  34.920704 37.015507 34.618713  33.531158 37.665726 34.95187  33.58038599870921 38.33145272294979 33.72824911460591  24.654318 13.307939 39.990357  26.602053 12.905472 39.990357  25.17588 11.523697 39.990357  26.06220343740465 11.56999229659889 38.33814953467988  39.348022 23.816961 34.001495  39.353809 24.498095 35.051922  39.95923699999999 25.373953 34.222164  27.719633 12.439368 29.612696  37.77408428328078 34.28446969758638 32.85502891317591  36.85597217258807 32.15403162700802 32.81542728616515  37.58118885745331 33.10774198522977 31.18422882513745  33.985168 22.314053 38.310894  38.150952703833 14.40805456160015 29.30626151592014  37.0888530462326 12.75019107777044 30.6257153914126  31.461531 17.526348 37.073097  30.440329 16.725859 36.451443  29.966129 17.58527 37.267197  30.0255123392935 18.03472492356367 35.88091271144472  38.418999 4.211218 30.137329  37.454517 4.540942 30.460093  33.63439385262951 24.65939886550144 35.31882608691149  33.67016947946241 24.27885424370789 37.72749034184408  31.81171254795396 24.64616726575867 37.32740556583669  31.85695336107705 23.5491326628832 35.64840685659567  35.556606 40.003617 33.576614  24.07073930966418 3.185145961031509 36.97704842628961  24.237766 2.941509 39.990357  22.40567515800198 2.802789300076973 38.2939741976155  24.31765871711879 1.696046253826013 38.26660409839959  25.63331665228358 14.17031921870796 35.77781542031118  25.555899 13.00423 34.467579  39.95923699999999 34.355175 35.814049  39.95923699999999 32.872974 36.237797  39.95923699999999 33.975815 37.507156  23.111506 12.083866 39.990357  22.885418 14.037459 39.371601  23.84113903654725 11.42296054006373 38.19635701998983  37.40773 11.205506 36.0819
[...]
<PointData  Scalars="p"> 
<DataArray  type="Float64"  Name="p"  format="ascii">8.1070005465262653e+00  8.1137163342738390e+00  8.1548211886338873e+00  8.1419564540371656e+00  8.2801813741986035e+00  8.2224763382547543e+00  8.2421954568190241e+00  8.1559335311813896e+00  8.0173927677146395e+00  8.0231300263493939e+00  8.0225844288851427e+00  8.0197678501741265e+00  8.3301662920180739e+00  8.3087416245971131e+00  8.3397682340275239e+00  8.3186931246844047e+00  8.6143409060904332e+00  8.6055533732357343e+00  8.6116209790016160e+00  8.6023702885581823e+00  8.1120828946914436e+00  8.1174827435240804e+00  8.1522321338436630e+00  8.0904981415109258e+00  8.5729001700220877e+00  8.5853850900782618e+00  8.6130461028060097e+00  8.5767230087059225e+00  8.7026329769180553e+00  8.6737295004693316e+00  8.7232625222634592e+00  8.7183143636966296e+00  8.0110540237249310e+00  8.0206740396432838e+00  8.0120861368557943e+00  7.9999999999999991e+00  8.3043723639649798e+00  8.1953073414690554e+00  8.2346265734854640e+00  8.2603600057401199e+00  8.0000000000000000e+00  7.9999999999999982e+00  8.0000000000000000e+00  8.0404145867759222e+00  8.2120983343557974e+00  8.1834386225040276e+00  8.2040270931737247e+00  8.0752801432998940e+00  8.0634210410575236e+00  8.0959208837889172e+00  8.0623509476325275e+00  8.4270546090362721e+00  8.4645123743851922e+00  8.4607491573890012e+00  8.4701114903471719e+00  8.3195257629262152e+00  8.3474269911817824e+00  8.3259986660186271e+00  8.3613130424910160e+00  8.4772158576272485e+00  8.4181396991652644e+00  8.4786340681546690e+00  8.4612228259176376e+00  8.3255785682981678e+00  8.3158456166991357e+00  8.2710930711301742e+00  8.3124731335135671e+00  8.5120364020205344e+00  8.5328880270003946e+00  8.5238483368497402e+00  8.4896665203811317e+00  8.0406550865231612e+00  8.0762117973435359e+00  8.0524617122473554e+00  8.0424609888005509e+00  8.0342209425382176e+00  8.0374833763020170e+00  8.0319944290890746e+00  8.5777970871139360e+00  8.5773876640476825e+00  8.5938958809544026e+00  8.5636971600763125e+00  7.9999999999999982e+00  8.0341167444366466e+00  8.4488485535986726e+00  8.4286912886002767e+00  8.4802975302419892e+00  8.2688947754022326e+00  8.2161117231705045e+00  8.2298004968747875e+00  8.2767138275551773e+00  8.0247075478498253e+00  8.0105894012276497e+00  8.0196744255054355e+00  8.0162780996924674e+00  8.5728302844817765e+00  8.5632932645569593e+00  8.5499697863685729e+00  8.5581230618166266e+00  8.1713137220602299e+00  8.1078588267575604e+00  8.0908524034280465e+00  8.0352435537505649e+00  8.0336950028255156e+00  8.0436649834864724e+00  8.0253140083172685e+00  8.0151368830397587e+00  8.0305612568349893e+00  8.0113245832534474e+00  8.0283043524869004e+00  8.6109687888936541e+00  8.6241739607842032e+00  8.6238323617259329e+00  8.1386947213933922e+00  8.1897078900033780e+00  8.1578308477657888e+00  8.1810192817029641e+00  8.0502764499389006e+00  8.0707863190386870e+00  8.0463420642044383e+00  8.0530649619815780e+00  8.0487954407361464e+00  8.0447145881019750e+00  8.0436090245298022e+00  8.0569269068209959e+00  8.0000000000000000e+00  8.0000000000000018e+00  8.0082317752074470e+00  8.0118144894735508e+00  8.3114309615081901e+00  8.2900126738605255e+00  8.3044933693060656e+00  8.3346647424341178e+00  8.0000000000000000e+00  8.0096003785350014e+00  8.0133214907754056e+00  8.0130024900353263e+00  8.0125062563938627e+00  8.0134214072225767e+00  8.0132518807258659e+00  8.0109724934210629e+00  8.5668307857718471e+00  8.5661542060171918e+00  8.5891911437391837e+00  8.5690755360009252e+00  8.0250436550328637e+00  8.0262256234698359e+00  8.0265830261722186e+00  8.0246242860047126e+00  8.2843456750978088e+00  8.3278884200012211e+00  8.5979163453146690e+00  8.6041307875932453e+00  8.6055106471474243e+00  8.6221926426403837e+00  8.6479882016707403e+00  8.6508255091086337e+00  8.5784738772964140e+00  8.5648853706658343e+00  8.3226673661971144e+00  8.2729911549500095e+00  8.2455702776685804e+00  8.1492349806330822e+00  8.2199163813189973e+00  8.2037421847181253e+00  8.6941270013140599e+00  8.7059232391912165e+00  8.6514777393261273e+00  8.6623397225724581e+00  8.0427883044287274e+00  8.2033205738367343e+00  8.2026798301914017e+00  8.1953005453050558e+00  8.2201575163941705e+00  8.0705887947928137e+00  8.1242446109056985e+00  8.0633929552257460e+00  8.1522077759190008e+00  8.0000000000000000e+00  8.5219848099532616e+00  8.5011581180234614e+00  8.4912275343147083e+00  8.5035126407367247e+00  8.1084175269483101e+00  8.1586148138008436e+00  8.1187020078139280e+00  8.1221762294061080e+00  8.0844847616405904e+00  8.1151573365201202e+00  8.0881201529614852e+00  8.1389389176412763e+00  8.0932794196274962e+00  8.0287392990278459e+00  8.0301113131869108e+00  8.0288083827476502e+00  8.5012626213656706e+00  8.4874769371443168e+00  8.5192940654413398e+00  8.5076779152910280e+00  8.0458537000754085e+00  8.0578798379472794e+00  8.0000000000000000e+00  8.5035484708579130e+00  8.0149109897930977e+00  8.0273683532140101e+00  8.0170996103124885e+00  8.2709324594981890e+00  8.0971173932130451e+00  8.1398680396464371e+00  8.3560768406509744e+00  8.3732981183965407e+00  8.3912432597409428e+00  8.3809965976696734e+00  8.0440374748234671e+00  8.0454756070573090e+00  8.2338500860347796e+00  8.2461864576264077e+00  8.3046607491794386e+00  8.3075681491417850e+00  8.0314315936515150e+00  8.6381508521898187e+00  8.6448841740297624e+00  8.6733352317206354e+00  8.6429080928828625e+00  8.4725410637496417e+00  8.4734374387936811e+00  7.9999999999999991e+00  8.0000000000000000e+00  8.0000000000000000e+00  8.5329920296630508e+00  8.5074035191772595e+00  8.5333519745072604e+00  8.1627224324190379e+00  8.1541089323839522e+00  8.5446594462403329e+00  8.5521270651846582e+00  8.5439681837333872e+00  8.5602699494964742e+00  8.5745123641854342e+00  8.5542224343259470e+00  8.5826959654322774e+00  8.0000000000000018e+00  8.0000000000000018e+00  8.0000000000000000e+00  8.2373085518335305e+00  8.2167803321194679e+00  8.1819583067797925e+00  8.2185055903794435e+00  8.1019045438093702e+00  8.3394117534759342e+00  8.6042579867534226e+00  8.5938253046877016e+00  8.0185563310471260e+00  8.0146566501719967e+00  8.0146481752008611e+00  8.0456673418629236e+00  8.0625237512579435e+00  8.1139077651304916e+00  8.2667100982106376e+00  8.2819580330295377e+00  8.1929646926232333e+00  8.0238618558803960e+00  8.0343925660154429e+00  8.5583276294375246e+00  8.5432273707749804e+00  8.5980930642115947e+00  8.2652530744279353e+00  8.3246184924641167e+00  8.3079920916674226e+00  8.2755598227472866e+00  8.1140541698484014e+00  8.1161200596565060e+00  8.1255557616654901e+00  8.0423205665186916e+00  8.0253846004723055e+00  8.5637430232419209e+00  8.2884472989283982e+00  8.2943533630657118e+00  8.0326394591391725e+00  8.0375573110434608e+00  8.0000000000000000e+00  8.0000000000000000e+00  8.0785356049317585e+00  8.4478621567720609e+00  8.4857846680649622e+00  8.0246128534295789e+00  8.0100228620144822e+00  8.0156778718131481e+00  8.0125245448274409e+00  8.0100422609544815e+00  8.2067743880062078e+00  8.1856055261220959e+00  8.0129430064249405e+00  8.0174565867709333e+00  8.0180562603195664e+00  8.0157907861045157e+00  8.5735044538433254e+00  8.1093719105006663e+00  8.1268020240119228e+00  8.1106760759451522e+00  8.1036620769237722e+00  8.0000000000000000e+00  7.9999999999999991e+00  8.0000000000000000e+00  8.0229750764035295e+00  8.0518381068262173e+00  8.0635864095444205e+00  8.0864878088977719e+00  8.0679960515532585e+00  8.0922568598231663e+00  8.0000000000000000e+00  8.1207885794312595e+00  8.1418961274432053e+00  8.1071880996392398e+00  8.0000000000000000e+00  8.0169892955371083e+00  8.0169752417085558e+00  8.5076967200571332e+00  8.4882184136013485e+00  8.4991999998232597e+00  8.4980333966106070e+00  8.6190023887227145e+00  8.6114937988104767e+00  8.6079833024992549e+00  8.6088746951359205e+00  8.0223840780100595e+00  8.0227469298938523e+00  8.0222512075279067e+00  8.0209418029597561e+00  8.6703863959153118e+00  8.6493221223977521e+00  8.2413148902047606e+00  7.9999999999999991e+00  8.2336928170262258e+00  8.6422073501258314e+00  8.6444494175677633e+00  8.6179635164085173e+00  8.6187362231869340e+00  8.0717467380227230e+00  7.9999999999999991e+00  7.9999999999999991e+00  8.3386855904717798e+00  8.3383628080054724e+00  8.4985087615099673e+00  8.4532651933176037e+00  8.6739197630795957e+00  8.6576421623541950e+00  8.0518056737377943e+00  8.0561884718795653e+00  8.0318603678587301e+00  8.0600591116031168e+00  8.0139931364641264e+00  8.6348461964796890e+00  8.6066903495900000e+00  8.6328302525512264e+00  8.6129071247029199e+00  8.0319714771218909e+00  8.0220079377650535e+00  8.0230171568807744e+00  8.0518203343506034e+00  8.0224479599840137e+00  8.0234863802225416e+00  8.4555482628476444e+00  8.4572722723620899e+00  8.0530845945841225e+00  8.0522543822151711e+00  8.1523236244560771e+00  8.1881781617529104e+00  8.2968607889990516e+00  8.2644876737709509e+00  8.3327274919865104e+00  8.0891590552820638e+00  8.0384491660011079e+00  8.3059222486426521e+00  8.3294074903965569e+00  8.3177079089213279e+00  8.3405532782324840e+00  8.3448465907814153e+00  8.3052380518200941e+00  8.3091238117872752e+00  8.4391950012038421e+00  8.4581936615108777e+00  8.0238176292498693e+00  8.0281261781302469e+00  8.0298772294237715e+00  8.0172190530030392e+00  8.0218710051163704e+00  8.0210045550194273e+00  8.0324449612632911e+00  8.0405501308436662e+00  8.4782118014097616e+00  8.4895732909138300e+00  8.4982249625729125e+00  8.5975538994742564e+00  8.6423684904115277e+00  8.6136668358147173e+00  8.0550765188782822e+00  8.0346680254795526e+00  8.0411768208275021e+00  8.3071809530530132e+00  8.3222075794629244e+00  8.0142670579095014e+00  8.0216510837066384e+00  8.0237999795383406e+00  8.6487159815450738e+00  8.6250371307456266e+00  8.0263042286430508e+00  8.0212011781578880e+00  8.7635877245957357e+00  8.7213579328731452e+00  8.6938123602501403e+00  8.7495279686863316e+00  8.0250947013160392e+00  8.0204428663404439e+00  8.0257014227104637e+00  8.0000000000000000e+00  8.0000000000000000e+00  8.0000000000000000e+00  8.0610331739500065e+00  8.0660229407559072e+00  8.4630563428644479e+00  8.4778843727268161e+00  8.4523942708888367e+00  8.4933007146724915e+00  8.2818061752693932e+00  8.2614800192892766e+00  8.3029165277430490e+00  8.6192931391880592e+00  8.6164247462790797e+00  8.6036937399486160e+00  8.3461356546427066e+00  8.3738961200202002e+00  8.3451383755860444e+00  8.3453536725239168e+00  8.5438517019665579e+00  8.0289300193115007e+00  8.0607823097084506e+00  8.0212933590488174e+00  8.0279557958428711e+00  7.9999999999999991e+00  8.0000000000000000e+00  8.0913858346541208e+00  8.2395525536663037e+00  8.2493500981524033e+00  8.1989096289379351e+00  8.1377587207017807e+00  8.1580481857605083e+00  7.9999999999999991e+00  7.9999999999999991e+00  8.3039356445307924e+00  8.1987736212147979e+00  8.1751358099944138e+00  7.9999999999999991e+00  8.0691079198536197e+00  8.3073894204077945e+00  8.2742651086206109e+00  8.3222298076621861e+00  8.0486733363573837e+00  8.5939470307607113e+00  8.5940482984596862e+00  8.2535116941257449e+00  8.2462505420624481e+00  8.2898215470679819e+00  8.2785842654169581e+00  8.5053707055329042e+00  8.5097300194395906e+00  8.4938732796851379e+00  8.5085541544188281e+00  8.0121087362502870e+00  7.9999999999999991e+00  8.0067572391849229e+00  8.0165758334182602e+00  8.1290751495700633e+00  8.1632251220179555e+00  8.0000000000000018e+00  8.2817844672965411e+00  8.0114169508495063e+00  8.0130873373484359e+00  8.0151756354473367e+00  8.0145159108524684e+00  8.0246513354554931e+00  8.5471968729531582e+00  8.5326763787910789e+00  8.5660356878382959e+00  8.5344067131833388e+00  8.5220635641365412e+00  8.0147860558059598e+00  8.0157718352389917e+00  8.6106003233943813e+00  8.6080937579531618e+00  8.6075083973221158e+00  8.6074968246303509e+00  8.0676973771589253e+00  8.0858984426690572e+00  8.0661032137514912e+00  8.6142074006396729e+00  8.6399093793069071e+00  8.6840651483735183e+00  8.6404498139393322e+00  8.5901194693560612e+00  8.6112045150758618e+00  8.6016465419247439e+00  8.5229295725020702e+00  8.0843657761870453e+00  8.0195922932320514e+00  8.0179086406470201e+00  8.0185174394117009e+00  8.4921331429021798e+00  8.1456042757197906e+00  8.0262973264026698e+00  8.0253766106329838e+00  8.0276553798084880e+00  8.0257888214128794e+00  8.0458406072690636e+00  8.0356925709211104e+00  8.0785478510901036e+00  8.1136492451504445e+00  8.0938533793938987e+00  8.0893435825339832e+00  8.2650706378658523e+00  8.2185915472330660e+00  8.2998491810020951e+00  8.7446141709620004e+00  8.7843889140977769e+00  8.7684183379098233e+00  8.0099500050698076e+00  8.0107900331796547e+00  8.0172004929363272e+00  8.0104329662765625e+00  8.0269033460183259e+00  8.0277992531461280e+00  8.6018909196710549e+00  8.6042824148001600e+00  8.6050808370871170e+00  8.3240097880805681e+00  8.5917375602398458e+00  8.5813049924165004e+00  8.0288135830491143e+00  8.0279464057355998e+00  8.0271337220458143e+00  8.3925936880197209e+00  8.4415751253407993e+00  8.3967594709402213e+00  8.4120493815475879e+00  8.2258379995621969e+00  8.2094673955702113e+00  8.2057914590249350e+00  8.1142889870192239e+00  8.1040468554103988e+00  8.1452934734312770e+00  8.1372865253573217e+00  8.0000000000000000e+00  8.0000000000000000e+00  8.2474500802116815e+00  8.2689676800684726e+00  8.2688410613012913e+00  8.2324614772118796e+00  8.0000000000000000e+00  8.0000000000000000e+00  8.0000000000000000e+00  8.0258699060322538e+00  8.0267689031861753e+00  8.0791027929742629e+00  8.0880997508921659e+00  8.0218937279289957e+00  8.0261229480796636e+00  8.0173369631979252e+00  8.2565455020373708e+00  8.3527906414812669e+00  8.3714001705882222e+00  8.1838611537071788e+00  8.2121095059873923e+00  8.2077127511543306e+00  8.1610110473332682e+00  8.6104981574575064e+00  8.6115845886678137e+00  8.1913452612722821e+00  8.1896831533551619e+00  8.5920303575146217e+00  8.5802343598516568e+00  8.0277661158370766e+00  8.0284617148115345e+00  8.5596886834930128e+00  8.2466766377136516e+00  8.2650841702692937e+00  8.2316749296594836e+00  8.2794559424273526e+00  8.5780949964554374e+00  8.5392618820321520e+00  8.2190675089213094e+00  8.1852542885575339e+00  8.2313005378802000e+00  8.1448119971575377e+00  8.0162223024909736e+00  8.0342522353236365e+00  8.0106308958541792e+00  8.0125559492780525e+00  8.0000000000000018e+00  8.0240963630930668e+00  8.6190525972540630e+00  8.5867596079439235e+00  8.7896383867457946e+00  8.7569780666888288e+00  8.7963648915569017e+00  8.0225348972118962e+00  8.0212925398790240e+00  8.0000000000000000e+00  8.0000000000000000e+00  8.6300481484699212e+00  8.6373702467808791e+00  8.4625903836595970e+00  8.0266060825994678e+00  8.0265201865238378e+00  8.0261940172651780e+00  8.2426989209226864e+00  8.2934840983032068e+00  8.6664646927902211e+00  8.3449423050206200e+00  8.3763442511785247e+00  8.3785484478012027e+00  8.3822282503704386e+00  8.4295951473249779e+00  8.3176883535958996e+00  8.2839994672219017e+00  8.4774857894802835e+00  8.4661422436336267e+00  8.2974883995940054e+00  8.3359382230056607e+00  8.2757141584282845e+00  8.0847573367688117e+00  8.0516271227505438e+00  8.6806450520202887e+00  8.7207619213200580e+00  8.6701306540351766e+00  8.2444021833065779e+00  8.1965090490235557e+00  8.6049373812873267e+00  8.2712581661673763e+00  8.2619550029568103e+00  8.2509662049078631e+00  8.4487038441925044e+00  8.4378876358841950e+00  8.4227616762007411e+00  8.4635730928907336e+00  8.4703051083713881e+00  8.4447545864357423e+00  8.3426854028664295e+00  8.3737926798641382e+00  8.3660164184691688e+00  8.3552689490861205e+00  8.2897328264554790e+00  8.3117601251105242e+00  8.2938014148792796e+00  8.1185881413018066e+00  8.1247298721563492e+00  8.2126025853533378e+00  8.2162293335836392e+00  8.1486916654987365e+00  8.1144337946260521e+00  8.1328731058984971e+00  8.4316850268239261e+00  8.2157665749770992e+00  8.0247746296470961e+00  8.0137469300976516e+00  8.2825543535778792e+00  8.2735903727707374e+00  8.1669877838150331e+00  8.1906542218106821e+00  8.1299454732537022e+00  8.1736480294027434e+00  8.5611506207032964e+00  8.1540562604115259e+00  8.1642634675023320e+00  8.1346349651493419e+00  8.1991144663630724e+00  8.0256618788582124e+00  8.0083230607386877e+00  8.0133922926824184e+00  8.0107247352922837e+00  8.6640971143857772e+00  8.4801996243234239e+00  8.4574925339248583e+00  8.2568805997142203e+00  8.2618726563251652e+00  8.3077036450078943e+00  8.1231036136663395e+00  8.0559098951773365e+00  8.0666308998297627e+00  8.3845551640472742e+00  8.4427579047836723e+00  8.4272318967761510e+00  8.4072947022399713e+00  8.1508136990668714e+00  8.1627850168969864e+00  8.1163154668829343e+00  8.1990141778986274e+00  8.6918935141173481e+00  8.0735451820329782e+00  8.0628851783323778e+00  8.0528576608469624e+00  8.0000000000000000e+00  8.4542894805392113e+00  8.0242493035412430e+00  8.0252745977430635e+00  8.0225245682168200e+00  8.5204001199248989e+00  8.5562591130291406e+00  8.5360907428716413e+00  8.5314047635930095e+00  8.1184395582925344e+00  8.5653204353350176e+00  8.5821122893810724e+00  8.5609712220202052e+00  8.5622955443075170e+00  8.1835404552544979e+00  8.1507684159754543e+00  8.1333950621400835e+00  8.0866665246395169e+00  8.0272117753274124e+00  8.2357555134691935e+00  8.2327935901732712e+00  8.1748569038648302e+00  8.2090574550746300e+00  8.7948155389772342e+00  8.7478184191929849e+00  8.2332276109469937e+00  8.0264386721759031e+00  8.0266632374448701e+00  8.2476150168001485e+00  8.2877706381042184e+00  8.0122797411813380e+00  8.0152582851357064e+00  8.0115318296638520e+00  8.0110714182459848e+00  8.0136240787314872e+00  8.0071635875408980e+00  8.0080696222026333e+00  8.6980566823585175e+00  8.0547524093969614e+00  8.4074987871362392e+00  8.0258917821071041e+00  8.6171595933789735e+00  8.6158825577237419e+00  8.6240251463844402e+00  8.3297573399578635e+00  8.0000000000000000e+00  8.0000000000000000e+00  8.0080652073027636e+00  8.0114076242617500e+00  8.4187549669659880e+00  8.4154922288996890e+00  8.3924105648559912e+00  8.6075994740528650e+00  8.6065457560256320e+00  8.6071304102396908e+00  8.6073309660693322e+00  8.3215081151487436e+00  8.0248284281249624e+00  8.0154961694779985e+00  8.4007514479358978e+00  8.0084033673176993e+00  8.0102332536887193e+00  8.3734735811289127e+00  8.3476412050358118e+00  8.3635817485314554e+00  8.2596142665578718e+00  8.0506111661869060e+00  8.0367602043069581e+00  8.0224720876218392e+00  7.9999999999999991e+00  8.1980362075000350e+00  8.0969738410638445e+00  8.1013184684148705e+00  8.1647312460744086e+00  8.1575389546468831e+00  8.4425928484570960e+00  8.4256454008561352e+00  8.3914948632088944e+00  8.0276313991401516e+00  8.1525135711858105e+00  8.0197018764998482e+00  8.0304488312698350e+00  8.0235011985539941e+00  8.0251861011540395e+00  8.1510121822221056e+00  8.1469830723166901e+00  8.2279861213876266e+00  8.1900312799156012e+00  8.1982741667516343e+00  8.0000000000000000e+00  8.0000000000000000e+00  8.4982137528729798e+00  8.4962793031583708e+00  8.0280059750307853e+00  8.0000000000000000e+00  8.0493657069366087e+00  8.0426950531582015e+00  8.0464363010414353e+00  8.6201541119100096e+00  8.1028743812742157e+00  8.2690683804871217e+00  8.2885756561448929e+00  8.2763308145472809e+00  8.5154827794527836e+00  8.0457097105261450e+00  8.0366852168163270e+00  8.0199013419307779e+00  8.1516136287640109e+00  8.3549889290892061e+00  8.3258440129949918e+00  8.0257294293802524e+00  8.0184423868420076e+00  8.0000000000000000e+00  8.3450903405498806e+00  8.5903650255706960e+00  8.0205027341706305e+00  8.0187603826879563e+00  8.0455488652470937e+00  8.0128410857497165e+00  8.0223792704680399e+00  8.2296272723688730e+00  8.2107597580487433e+00  8.0000000000000000e+00  8.3862056369884730e+00  8.0000000000000018e+00  8.0202253081204038e+00  8.4850724157679558e+00  8.2185123758129155e+00  8.3553627131355928e+00  8.6029099374987634e+00  8