<?xml version="1.0"?>
<VTKFile type="UnstructuredGrid"  version="0.1"  >
<UnstructuredGrid>
<Piece  NumberOfPoints="1221" NumberOfCells="4283">
<Points>
<DataArray  type="Float64"  NumberOfComponents="3"  format="ascii">1.94901 20.12051 21.513597  3.878021807445372 19.28318309855155 21.52262426538138  3.717435871062236 21.03510333841442 22.3288406546044  2.790950031577306 19.75197003392619 23.00707691568793  6.042869 15.602733 8.488417  6.868001526110733 14.80300069729249 10.2948421709327  5.696989 14.035275 8.999413000000001  7.914386996147353 14.73161335713953 8.600378306605915  8.295901000000001 3.186718 3.4129  7.617446 3.154827 4.827653  9.22982508957686 2.601804030519305 5.298688609015728  9.007397772065213 4.219407273410644 4.550883273149393  2.448202 5.255555 6.494065  0.926555 5.860102 5.010828  1.063020072338049 5.819623678969101 7.235964686371542  2.176348074938106 7.131714767796274 5.960026261440419  1.581301 20.257883 9.745307  2.410212 18.94964 11.166793  3.297106 20.140476 9.822196999999999  1.778169124609136 21.06102915602328 11.1783700543164  0.02680700000000003 7.988906 8.191083000000001  0.02680700000000003 6.59597 9.351971000000001  2.111834162182856 7.052470563688375 7.823097169765382  1.492335708771248 8.950432661514181 9.254331714176079  4.399418 12.331587 6.00383  5.432504 12.992594 6.727538  6.362363944667335 10.95096170531796 6.432312642768274  6.108663486634345 11.93843376498272 4.61472093056154  16.809328 -0.01335700000000001 4.290929  17.893618 -0.01335700000000001 3.426736  16.887096 -0.01335700000000001 2.665009  17.19005962777042 0.9865154810395201 3.468847324527784  0.02680700000000003 15.13814 19.980547  0.694232 14.071859 19.307213  0.02680700000000003 15.162457 18.655331  1.632046912466678 14.91536293985825 19.27355965439559  13.811415 -0.01335700000000001 1.883382  12.623406 -0.01335700000000001 1.202114  11.868628 -0.01335700000000001 2.164625  12.43506883465064 1.524002120873115 1.504551711397707  6.552649 4.432037 9.512362  7.088001 3.444018 9.255940000000001  8.280275708770848 4.730765446633938 9.068067663216844  6.907149891088562 3.794237168272217 10.69315974700493  10.574735 15.122467 2.431834  11.616045 15.224722 3.883815  11.66724483423557 13.32509570250734 3.917574325563651  12.12044193551288 13.96501546268771 1.87154009906439  17.084988 2.840739 3.323675  17.688803 2.113634 4.364354  18.16325909322191 1.665831259172509 2.190629801551494  7.731139271748193 15.37261636647075 12.28524753197804  5.632441056138799 15.02865203157927 12.07046961428611  6.322333743279195 16.45138937450873 13.67758764260342  5.869731370736135 17.40975346857281 11.91703072306095  9.446431 11.897923 12.22177  10.732734 12.828452 12.486292  9.557038 13.092218 12.045273  9.222442888934532 12.6856621973251 13.2555484921753  6.390335373835473 14.47273484023742 14.67479206197473  8.577643471841389 14.78685184313636 14.54440214858186  1.993916539635067 1.470664332401625 9.294004668145048  2.141697654164654 3.213047820645816 9.637282694323707  1.522471004553983 1.936125884619313 10.97969600157967  3.683623389785226 1.482370756695182 10.09957208699594  8.329472779634187 11.57683991146848 4.013694237897885  9.203268966199607 10.45085209421719 2.532970442076513  7.643328 9.636744999999999 3.294705  7.899514 10.525414 2.3248  4.038899895822237 18.99462615165189 11.81873264996385  3.345284627883075 20.48072871061609 12.43341079131708  2.789471072989422 19.1446459184935 12.69165069178368  10.838786 9.965923 5.674525  9.619973 9.140874999999999 5.946559  9.580470999999999 10.434439 6.185766  9.495739121118527 9.975798001699383 4.254600583446018  9.988780005831709 6.190788511188918 15.77902919721475  11.179282 5.873302 17.723663  9.145749075111736 5.529626875822297 17.47784288742655  11.09657596658009 4.208204617489974 16.22286704003758  14.218038 4.28757 2.427491  13.330557 5.203068 2.086248  13.708489 4.63459 1.052371  12.82105548759126 3.430074529142398 1.593537613576033  3.34878 25.157225 19.379133  4.377492 25.042206 18.826677  3.231803386576169 23.12792299824329 19.20803203258031  3.179247923952101 24.19689325945012 17.58004827539107  1.596517 23.627493 20.192249  1.310247 22.341372 20.428564  0.697731 23.09848 19.3281  0.715757 11.161253 5.546711  1.696484 11.776858 5.782785  2.194420395722051 10.05534121404246 5.368221738456233  1.781082699091642 11.31436040575574 4.601134685425235  11.910056 7.016675 1.488262  10.702551 7.39953 1.169782  10.436253 6.229518 1.624346  10.91910015456106 7.049681864307057 2.497775279891517  3.302304 14.23271 19.460339  4.438506 13.750543 20.316559  4.312820684480341 15.5299426731371 20.02553586537253  3.377188023640557 14.4752601282951 21.15495831252358  5.933671 13.989018 7.593861  5.76661363851561 11.75118066494402 8.837278552843456  7.451989 12.071693 8.719601000000001  5.032613 12.788944 8.633946999999999  5.977271 11.966088 1.56851  6.129263491996168 14.14960305298031 1.994590729163137  4.591065 14.230147 1.784055  5.141148898047769 12.48921094913477 2.969905000316842  5.917176756732391 12.39961592142705 10.07514294071668  3.512146 19.143234 24.414234  2.427891017596238 20.97233088015217 23.97939452880911  2.44904457071215 20.54439833257412 25.60242301515509  3.909334 20.827328 24.91428  5.635177 5.678625 7.975714  5.213851523209087 6.75725704262601 9.991836072185778  7.191723400697119 7.643208805298558 8.467661669018131  5.019844343618873 7.667216443463015 7.638732413648432  8.777300287017422 12.97111320031194 19.2544453347335  10.78389105407233 13.04045461671801 17.23826246875363  9.661895556268984 11.13035759682561 18.38950683874881  8.853156195584134 13.48970248203965 17.59792807719317  2.382906 21.858818 22.906555  1.768822 20.565317 22.475273  2.0869 21.605131 21.621403  0.794529 21.657116 19.355013  6.526152 2.412904 13.260274  4.491807321967943 3.332118305835046 13.39917909072997  6.788650321256785 4.590741028831713 13.09792491512525  5.785505148348778 3.315469719691901 11.71848385807122  5.49693 24.761221 20.459753  5.124176 24.252865 19.235117  6.082941 23.80669 20.393366  4.886947175633642 23.54584591138755 20.42458776436498  13.451139 4.975018 3.445527  12.675958 6.205115 2.393223  12.04365044063879 4.940427570926335 2.215689540025914  7.781537 1.832801 4.123065  7.244629436753757 11.98083833586169 12.82874594864811  6.630629 11.72057 14.977788  7.929617063225881 12.34893789008783 14.83789634598838  7.500604140215239 13.34146186024982 13.00668355509349  5.487421 16.518658 3.45066  5.170033 15.473146 2.174929  5.138199 16.938465 1.842491  6.637669132212316 16.73707878510914 2.510879538089209  0.558449 11.286442 0.554433  0.02680700000000003 11.040826 1.532738  0.759377 10.415281 0.6078209999999999  1.157979044129718 10.96534570084541 1.609375244222776  9.171967 6.748343 8.554100999999999  9.622271 5.951667 9.851076000000001  8.88993 7.199496 10.235861  7.307351155241184 6.185507558983707 9.248577313232444  4.503622 23.491222 16.966305  3.567463 23.868361 16.120028  4.227173 22.553837 15.922651  3.487630687683333 22.72564153029639 17.11357992157844  11.673547 9.764535 13.069297  10.752892 11.229055 12.794168  9.879168999999999 10.176682 12.42815  9.887674447655064 10.50079345990789 14.90614833197109  4.078433 13.459216 3.043406  3.171375 13.958114 1.534539  3.776668523885623 12.32000353167177 1.433376362155387  8.660228999999999 15.136793 17.8834  9.406176 14.369905 19.003651  7.265566755317891 14.44906947804619 18.31039190986613  4.081313 14.030858 0.647113  8.685843 1.058775 15.119533  10.50773277306155 1.866703909377889 16.17565911683996  9.858820156615259 1.209209871081335 13.97715859973623  8.775138255849614 2.180431181813743 14.68478129489693  1.648366 19.04339 20.539394  1.000154 20.191893 19.340883  1.496617 20.885506 20.487038  3.065201720776472 20.09385159783359 19.33908780187606  3.791657583698576 6.319231647675268 11.48132439278067  6.071651710918937 5.601639870020448 11.43682787203736  5.351510107710458 7.094915279398565 12.18853340411547  2.780961 15.232459 10.640915  3.367644 13.856372 10.576126  3.476057494508983 15.19323286745584 12.3022677205413  1.917975921332274 14.04793155220025 12.31404088534421  18.497854 -0.01335700000000001 4.531456  19.109287 0.775329 5.733486  19.05727 1.995144 5.026016  17.645977 1.036734 5.007983  5.895429982186971 9.402696764192592 9.516959709555728  9.210337000000001 15.484076 2.267193  9.902303 15.630689 3.712507  9.069960986635531 13.8367567661033 3.24742558781996  0.661976 17.918301 18.586088  0.02680700000000003 17.215652 17.366135  1.249680971297046 18.93085495693263 17.55381596231609  1.440010306581762 16.62475412733215 18.46081309121604  16.91690851810002 1.423660653576979 1.468502657243572  10.102858 5.596613 8.18078  11.032235 4.681758 8.238623  9.506343048792987 4.084891894094183 8.280813124362172  10.3660016721756 4.230808593890155 6.554696486435686  0.02680700000000003 22.2782 18.01985  1.992375524066167 21.25824006240157 17.81948571790149  1.541753923455519 23.45591922953062 17.9963552122374  1.959442 4.377096 7.441648  1.388253 3.403993 7.298172  2.50664 3.24079 8.140757000000001  1.228374657545154 3.587404305211666 8.484788739978139  4.170712 11.061011 12.510179  4.028435 9.907688 12.19608  3.66893 10.405523 11.163539  5.892585158363861 10.62853917865642 11.81967328091439  4.945128 10.465021 13.294037  6.086507 10.674039 14.092588  5.665396 9.364324 13.774745  2.058405 10.853691 8.397592  0.701736 10.76264 9.329573999999999  0.788669 10.498635 7.876313  4.216159626067883 18.24074211119196 14.84119874838804  3.701231839397729 19.23112074106864 17.03166311855471  3.684527678085654 19.8593051580202 14.40323362611896  1.821473272392426 18.83727722177242 14.94538579674027  8.728395000000001 18.545036 3.528348  9.310022 16.966867 4.460686  7.267973433141719 17.74932537232515 5.444967673941309  7.018230236525209 17.74489570962313 3.401054177105916  5.771876239642673 19.68292274412986 11.38608644585325  4.791118055580794 21.55543496097842 12.4827632392042  4.867027276005956 19.6807364395193 13.0097
[...]
<PointData  Vectors="u"> 
<DataArray  type="Float64"  Name="u"  NumberOfComponents="3" format="ascii">1.2863800642523861e+01 1.4205282182343837e+00 1.0574466145853511e+02  4.1999614849581334e+01 2.2158613570831296e+01 4.9991724882818239e+01  3.1034931500908851e+01 4.7363120448231255e+00 7.4863356297479996e+01  -1.6205225336490083e+00 4.9128670719965228e+01 6.9906727440963138e+01  1.3363692214102963e+01 3.1308441564507138e+01 -4.9508538783337542e+01  7.5209993309768720e+01 2.1900044654064757e+01 -2.7476623436340756e+01  4.8494569495420812e+01 4.8189676918115971e+01 -3.5624268063782544e+01  7.0225161820404935e+01 3.6071952983856967e+01 -1.1607355823565808e+01  2.3671850159904867e+01 -4.7997208215298805e+01 -4.7755921865630164e+01  2.7387074132550591e+01 -5.6713514991925202e+01 -4.5558340686942465e+01  3.0586750750121741e+01 -2.9810146818333237e+01 -4.6394611913738260e+01  4.0669517679334071e+01 -3.9003121333363524e+01 -4.1983555252561906e+01  1.0072185305076404e+02 7.6912571816864499e+01 -5.0323664663130636e+01  4.8768291865411577e+01 1.2620564134541203e+01 -1.0151136356117932e+02  1.4625920837655050e+02 4.7041864522550910e+01 -4.9065932191888528e+01  1.0360350530734557e+02 4.0309123786980159e+01 -3.1955141573356389e+01  5.0055990979671172e+01 1.5364004640193256e+01 -2.1270328834517333e+01  9.2693355664962709e+01 -2.1627971250121394e+01 -1.8369276010139060e+01  1.3496891315856863e+02 -9.1573970941050948e+00 -2.5411127568206023e+01  6.6073308719219696e+01 -7.0589865186465000e+00 -4.0750174932928132e+01  2.0104900329411203e+02 6.6685296996107354e+01 -3.4171611183036088e+00  2.0133564576420065e+02 6.2027264943632716e+01 2.4138329813776426e+01  1.3520038385108563e+02 5.1910255528391318e+01 -1.1189026127003904e+01  1.2847590004190263e+02 5.0366873107259579e+01 9.3039812504193335e+00  1.0966261979979890e+02 6.3796671796270907e+01 4.5730003307647911e+00  6.5701235614848144e+01 8.3802805419617656e+01 4.2836087916382937e+00  7.8979238086628001e+01 3.9372114214427810e+01 -1.6650137289725393e+01  9.0200401268395566e+01 4.0575796457396493e+01 -3.6802767316693781e+00  2.4237870235264376e+02 -1.9129686892955526e+01 -1.1463389745618644e+01  1.8158816613798356e+02 3.1003853025579772e+01 5.6381215532249215e+01  2.0221658638142986e+02 -3.4607306256456809e+00 6.6005439740345375e+00  2.4022431476257711e+02 1.4419754812146648e+01 1.7302585545915726e+01  1.1021306049310282e+00 2.1889620152648540e+01 -2.3549482789931911e+01  4.7488953146261004e+00 4.9907403695474803e+00 -3.2264860629894649e+01  5.1195009834665541e+01 -4.6362626289436243e+01 4.9928941404006018e+01  4.1296968844517430e+01 1.5600502605544605e+01 -1.6457298286452250e+01  1.3912700918204163e+02 7.0173864015335150e+00 -3.0458840015200241e+00  5.6761847034110495e+01 -2.5191969152792675e+00 -2.9558277405122553e+00  7.9779071570155082e+01 -4.5596682032324004e-01 -2.5238218566756021e+01  8.5467568417237970e+01 -1.3740413596216323e+01 -1.6737675271670614e+01  1.2486520870171456e+02 -1.6812533096106168e+00 -6.8585090445744299e+01  1.0750330011927137e+02 -2.9141763157636699e+01 -1.1957022646474340e+02  5.6565878475985137e+01 -2.6960184775796993e+01 -4.2511397631718921e+01  1.3116053692539117e+02 6.8536858189473175e+00 -3.1675666669661169e+01  1.2831733847664157e+02 -2.8746103911242571e+00 -6.1608070544628486e+00  1.6844424669567121e+02 4.4573794995115321e+01 -1.4863593864236011e+00  9.0427560893917217e+01 5.0280022442080593e+01 1.4600729602303222e+01  8.6686387584078830e+01 6.5620583242074147e+01 4.3626892411563585e+00  3.1744895228980727e+02 1.6695551869034848e+01 1.2476177046805761e+00  3.3322211171725195e+02 2.2264298439837376e+01 3.0421411010783224e+01  2.0711223606619242e+02 6.6738488077018488e+01 3.9912038631724684e+01  1.0238817629672258e+02 4.2868090773755760e+00 -1.8082048269599650e+01  8.7603504832187483e+01 -7.3018770901549379e+00 -2.7834032577786196e+01  1.1223836241097884e+02 -2.8385553352652174e+01 -3.2573776414379196e+01  9.8948639064847939e+01 -2.4492013300468965e+01 -5.1694554901009788e+01  8.5330849014954907e+01 4.2027461283495960e+01 4.6715001253345996e+01  8.7306889288951538e+01 5.0077556117048694e+01 1.0190837589641449e+01  1.0203931867646104e+02 5.3430464173147236e+01 6.1797454298823160e+00  9.0143946094683244e+01 2.5644324470105747e+01 1.3967214379407697e+01  9.8370319676099797e+01 -2.7072597480629177e+01 -1.0050696558634396e+01  1.0673569940850216e+02 1.7436115837185941e+00 -1.2552284066232202e+01  7.8469047380961300e+01 -1.0414832364757627e+01 9.6181610587190320e+00  1.0641043307840350e+02 1.9607220821912929e+01 2.2173483448855851e+01  1.1473320765570345e+02 -5.6247134602213844e+00 1.3021048235784324e+01  8.3413840554492751e+01 2.4733382839769181e+01 1.7202818186019400e+01  7.2639612242165597e+01 1.6130337619514332e+01 -1.3956854378803065e+01  4.2530383731352039e+01 5.9755962684404915e+00 -1.9689055745292556e+01  5.8381747594645582e+01 -1.3522459863392033e+01 -5.1857160628456825e+01  5.1876632872159959e+01 -2.3786890099810524e+01 -3.8809420243424213e+01  9.7720171109484284e+01 -3.1823658595185023e+01 -5.6566501504220064e+01  8.0622351375651164e+01 -2.3571513143680558e+01 -6.1841547434362894e+01  9.1562061084766270e+01 -3.0576694931763544e+01 -5.8835802762523727e+01  4.4426798677141839e+01 5.1409308037752062e+01 7.1666106508812000e-02  6.5832625795086898e+01 2.4317254235715826e+01 -3.1905924000836308e+01  8.3666321874355106e+01 3.9798768745650698e+01 -4.8283146109977846e+00  5.4951958514090080e+01 1.6105142626651340e+01 -1.8174804860940764e+01  6.7746379136853719e+01 4.0510304631434906e+01 4.0787209178645876e+00  4.9980943390727418e+01 4.4510642697910747e+01 -5.7184985573955686e+01  5.7442728083982772e+01 3.8396271427247129e+01 -9.2935442028484907e+00  4.3302402482687668e+01 4.1514499750831689e+01 -8.3970377555847282e+00  1.1615160405333418e+02 -9.1536025529736619e+01 -4.6708055540729326e+01  6.8034857831798931e+01 -8.3318312763864412e+01 -3.4719427275866835e+01  9.8301653002926088e+01 -7.5820357388560851e+01 -3.8126913622446608e+01  8.6879756047922697e+01 -4.5101731430383929e+01 -2.7304298216426808e+01  1.6475233410855725e+02 -1.0855258028691556e+02 1.3174727782512076e+02  9.6241987735882262e+01 -6.8465164866114321e+01 1.0969552568847169e+02  7.9701990795626358e+01 -7.6531131444310120e+01 7.7258731814371259e+01  9.5113535463125714e+01 -1.2981483531833038e+02 3.6603357582172357e+01  6.7886918865819368e+01 -9.5749679079544805e+01 1.0177758290689249e+02  6.0993749988627329e+01 -6.8317040837630017e+01 8.3309318337601979e+01  4.4601014663909588e+01 -8.7258239673616501e+01 9.7984614069970675e+01  1.2686290812023543e+01 7.0493374193152860e+01 1.4079271390107147e+01  7.4015197179390327e+01 2.4273108603307264e+01 -8.7529092174982654e+00  9.1120732822247049e+01 4.7729035470255077e+01 -8.6378772868978633e+00  7.1641082840707654e+01 3.3356152067365954e+01 -5.3872374483671495e+00  2.2216046594086979e+01 -5.8860100704860997e+01 -3.6292207853526453e+00  2.1847283640802875e+01 -2.8869327621588440e+01 3.1708932334257125e+00  4.5776735287684438e+01 -4.9732291229449437e+01 -1.1248055505884869e+01  2.8334518756671986e+01 -3.1855164135523996e+01 -1.4194723512447142e+01  8.5555558993159096e+01 2.8162092701671384e+01 -2.9664561812436748e+01  1.4271947252745804e+02 3.6397885650239337e+00 -6.9982920903374605e+01  8.6503906277836180e+01 6.0572198740890801e+00 -2.0730311599045656e+01  8.9562017735822707e+01 6.2252777408737217e+01 -5.6471308153594570e+01  3.5697204050759247e+01 6.4940810249968663e+01 -1.3286875851642508e+01  5.6922685544903011e+01 5.4823178829648583e+01 -3.5833218740180257e+00  5.8325501729842451e+01 6.8931836109983010e+01 -2.0600055402192144e+01  5.2978592891613161e+01 6.8687747477044184e+01 -8.4428950404819911e+00  1.1627286319511789e+02 3.1125101965267501e+01 1.2405018469583309e+01  6.3623881951705009e+01 4.4248195212757388e+01 1.0734746640507783e+01  1.0862730475927715e+02 7.8404284668300008e+01 2.0244238633507603e+01  1.0140527184966867e+02 4.9898188989102316e+01 8.6214672403404027e+00  4.9849541403444043e+01 4.0718393645004781e+01 -3.7466632563370021e+00  -5.3592525212751934e+00 9.5864537177011712e+01 9.5639404337223510e+01  1.1411588578977159e+00 5.0775923113783911e+01 9.1513927373866977e+01  4.9710809798579874e+01 5.8051167648362345e+01 9.9750201849550564e+01  3.3654586288207234e+01 4.8493933026056503e+01 1.7081025391792951e+02  1.3748828424408055e+02 -3.3812262364305624e+01 -5.2438483449536349e+01  1.0955451666096818e+02 2.9186780908729826e+01 -4.7377708244706351e+00  6.1891072439376821e+01 -6.7003195618043545e+00 -2.3761970059539976e+01  1.1178176582088905e+02 1.7626508223408781e+01 -1.1676839526667205e+01  8.0249547516070820e+01 -4.1613406526698029e+01 -3.7228859266803966e+01  1.3329709980618554e+02 2.3589742953709085e+00 -3.0826318813201599e+01  6.8983636597464638e+01 -3.9366229455899626e-01 -3.6297740395220934e+01  9.3332276773093284e+01 -2.8014170200054348e+01 -4.0648907696981190e+01  -3.9434812565887647e+01 1.7946773804289890e+01 1.4329999329241932e+02  -4.6005322629637426e+01 3.0766238983280918e+01 1.0924293884928309e+02  3.7273031665363398e+01 -4.8424714422830561e+01 1.4962697524855426e+02  5.3501379501983521e+01 -5.4299366596859230e+01 9.0896898312485817e+01  1.7193954848590246e+02 -5.8270493805771499e+00 3.6596723689566737e+01  1.5709079172824741e+02 5.3522540568631278e+01 -1.1115907345775730e+01  1.0580941134511039e+02 2.5967084716369985e+01 2.3766443919982333e+01  1.4242940783213680e+02 4.0293895304412928e+01 1.0221441114343362e+01  9.8414143113865961e+01 5.5720396154212608e+00 1.1197631956066428e+02  8.9670544273789432e+01 -4.9013054336178961e+01 1.3816258872403361e+02  1.1739314393911503e+02 -2.1509771635377252e+01 1.2393707057276940e+02  9.3139489187870353e+01 -2.7524325677767088e+01 1.1064480235449815e+02  5.8361107068796414e+01 -7.3961239838797923e+01 -4.2835619414662965e+01  3.3464327382403333e+01 -7.3334386999806441e+01 -2.4629748447499736e+01  5.2767647193487896e+01 -5.7507878078320026e+01 -3.2317912007085020e+01  -1.7882265599994007e+00 -3.2509976044756954e+01 -4.6929294442775522e+01  6.8027037197638180e+01 1.6688556569362689e+01 2.0151574506685741e+01  5.6391360314833136e+01 -1.7338423515142313e+01 3.8291148165478994e+01  7.1478598610421272e+01 -5.9238786872244233e+00 1.2887166253768690e+01  8.3783795620374818e+01 9.8950359580381502e+00 1.8704565584504649e+00  3.8936874656790441e+00 2.6365624870607217e+01 1.5748012491744362e+01  1.3851464731727090e+01 6.6116946511326645e+01 1.2674212063565701e+01  -3.9382195412121201e+00 1.7054539150829257e+01 4.5668314906279219e+00  1.7774399679599192e+01 1.5875579928385946e+01 1.3275319209745449e+01  2.3794134224254961e+01 2.1737467420767906e+01 -3.0761911511053903e+01  1.3630665016961083e+02 1.8455599467381807e+00 -1.3053990267857131e+02  7.6387690068346474e+00 9.6716483037312848e+00 -2.3590225402889562e+01  6.6569759966699181e+01 1.5201375074989075e+01 -4.5506169904350521e+01  3.6960281914841303e+01 -3.7515584499722792e+01 -4.6320915263665654e+01  3.2087530856272032e+01 -3.4264586664378257e+01 -1.7143468648283338e+01  1.9637904076066455e+01 -2.2048435375873101e+01 1.5360337094101064e+01  7.4126914632488010e+01 -1.2424164581079349e+01 -2.7326648919191367e+01  3.6436861894112859e+01 -8.4695432606759312e+01 2.4488972971091410e+01  4.4878524672568354e+01 -1.1207864763782311e+02 -3.3835606239735377e+01  3.1197295519547527e+01 -7.8667439950105432e+01 -4.6750528280408950e+01  6.0752487914516955e+01 -7.8020470489859079e+01 1.0548037396713857e+01  1.0212537830145635e+02 2.2984916080589478e+01 3.0698243453835907e+01  9.2969478262651691e+01 3.1534589879581716e+01 3.1258147856627481e+01  8.9719955156216116e+01 3.2318084284064426e+01 5.0695523838356927e+01  8.4542848240850091e+01 2.1168255575973323e+01 1.7495088009932772e+01  1.4257460008287757e+02 5.1670940347117188e+01 9.0175660804886029e+00  1.0647207377399907e+02 6.5799403877454425e+00 -5.7844305172161370e+00  8.6832478297451715e+01 4.2085148733492431e+01 4.9492309384215050e+00  1.1669652279681496e+02 -6.2910123018636192e+01 -8.8418462815205416e+01  1.0985696941906023e+02 -5.9320815654364949e+01 -7.1297124948055753e+01  8.8825385745645960e+01 -6.3818516587214596e+01 -6.3625447026276703e+01  1.3895238699033411e+02 3.3201216075490883e+01 1.8614088158152356e+01  2.6946959053453210e+01 -2.1100764749131010e+01 -5.6830533398795824e-01  3.0578853535947289e+01 3.8879519320303100e+00 3.2791940198412678e-01  2.7266138592420482e+01 -5.8152730088669786e+00 -1.3961789678182381e+00  4.5233628694183608e+01 -1.0018665424781586e+01 2.4053565408331679e+00  2.4771717351420044e+01 -5.7334272985296177e-02 7.3257335905897222e+01  5.9577408191445571e+01 -3.2604026106015390e+01 9.1224364348377591e+01  5.3747064281962309e+01 -4.3870539214990181e+01 9.1128410290746615e+01  5.5756628245413360e+01 -2.6054647503031006e+01 5.2970153009506703e+01  1.1928443108359708e+02 4.9556009658276984e+01 8.7110767836601717e+00  1.0715134892949997e+02 3.0302884320163365e+01 8.2798002527477639e+00  1.0012415067880009e+02 4.6464321900057939e+01 2.5385155027580559e+01  7.0852314616659783e+01 -7.5582493640424175e+00 -2.1917132403314735e+01  7.7629992039570311e+01 -1.8377926586026465e+01 -2.4803049773944760e+01  7.8987174874627740e+01 -2.1904768752322457e+01 -3.9339806687960028e+01  5.7038047223870855e+01 -2.3531195673064225e+01 -3.4275375570035898e+01  2.4401538147100047e+02 6.8709579738096295e+01 1.1038718333632588e+02  2.3075664269113784e+02 2.2048010993577179e+01 3.1545011032967460e+02  2.6135088783509434e+02 7.4032413470021226e+01 1.6069124883245095e+02  3.5392786176930116e+02 3.6678576736653907e+00 6.1405152634894392e+01  6.6320431976503812e+01 3.3601108167981501e+01 7.5645667401850929e+00  6.1078867900874450e+01 -2.9725322974956807e+01 1.6122547374793061e+01  6.3475865831988060e+01 -4.0112658481253064e+01 4.6615706518517559e+00  7.1466082364075575e+01 1.0962846592877991e+01 2.9089963920343571e+00  2.3380512006641077e+01 -2.4746085154350375e+01 7.3413217205377393e+01  1.3803767650081087e+02 -2.0860694500842776e+00 8.8048723810662381e+01  1.0294334072167879e+02 -3.9669781605987005e+01 4.3131162765286120e+01  6.2368896323083824e+01 -9.3051085990096383e-01 2.5937012498395642e+01  2.0075443331832466e+02 9.1449073274495198e+00 -3.7017659026059797e+00  4.8413353081741398e+01 -3.3065411814154068e+01 -5.3459667020191986e+01  5.2552762122415132e+01 -2.0834436211051027e+01 -5.3033111132018711e+01  4.9069935070862392e+01 -2.8390291830801488e+01 -4.9325689752722461e+01  4.6154628354128391e+01 -2.7512645510647072e+01 -4.5562550500142805e+01  1.4777866229174765e+02 -4.5447192195576129e+01 1.0978866292580636e+02  8.1897163438367457e+01 -4.7807015423912482e+01 3.5720469608218053e+01  7.4765397223412521e+01 -1.0694762380497889e+02 4.2840045348677414e+01  4.5715151497149037e+01 7.8789310488072530e+01 1.7057352790982856e+00  2.8602949309490878e+01 1.8834252392151438e+01 7.0979048224202357e+00  5.9383379715434231e+01 7.7901173220447522e+00 4.9931595152373788e+01  9.7821996303973222e+01 -1.8230154970601631e-01 -8.9220739584512518e+00  2.4266610654757098e+01 7.3960482108498242e+00 2.8180362816989625e+01  4.8461877875138086e+01 7.3778704203785139e+01 5.1861633806772687e+01  5.3743835364263248e+01 9.2934896438705195e+01 5.5370450231718671e+01  5.5910359743063985e+01 3.0212487044432716e+01 2.6530811682724735e+01  3.8364566141796942e+01 2.8788561131290990e+01 3.6826057814075895e+01  5.8053888793757075e+01 1.5668407377641326e+01 4.4286188363226458e+01  6.1720469592592359e+01 3.4964549052207246e+01 4.1131149062304871e+01  1.2684781556567702e+02 2.4535607234881223e+01 -2.9668949312393543e+01  2.8874251465248225e+01 3.0749091983975621e+01 -1.4111166937110166e+01  6.1460609293200498e+01 5.9695250797794401e+01 -2.5517682867626359e+01  7.7018486961154466e+01 -4.9233209872395200e+01 -6.2737479741146977e+01  5.4283493642530608e+01 -3.7692841191631487e+01 -3.3652210207178039e+00  7.4945869688401814e+01 -3.9602641998908069e+01 -6.5380939955985255e+01  1.1149853530041446e+02 -3.6714807257663374e+01 -5.3258669178622874e+01  1.3887657960876171e+01 9.5586797794445229e+00 3.0798132511524418e+01  2.2962764673439427e+01 2.3117690766561054e+00 3.4265524695879179e+01  3.0470746283622283e+01 9.4128527301271525e+00 1.3979221030571388e+01  1.8186333233932253e+01 7.3257166885086695e+00 1.7162887431291022e+01  9.5855595979453355e+01 -3.2463560391320449e+01 -7.2203300936708544e+01  8.1588968208294361e+01 -2.8729041815115629e+01 -7.0927363168059543e+01  8.9494161006563985e+01 -3.9996112540260370e+01 -7.1184838369959550e+01  7.7976323136002875e+01 -4.6961232623989083e+01 -7.7690592369157542e+01  1.5677721812236874e+02 -4.9212981674034502e+01 -1.4976337541126006e+02  1.9355726392896381e+02 -3.4053719696462089e+01 -2.0433624819561171e+01  1.4972975060998709e+02 -2.2601640030502530e+01 -1.6360978968782919e+02  1.0616384056556906e+02 -3.9960831779613308e+01 -7.2943488533383757e+01  1.5616633363470001e+02 1.4316250251054652e+02 -2.1225329729771428e+01  6.2447849965525279e+01 5.9137161808642603e+01 -2.7295274864581792e+01  1.2009677429350711e+02 6.4977070168693302e+01 -1.6316918498992116e+01  1.8627066964990919e+02 1.0069334355067385e+01 7.5982436766031853e+01  1.5942298664290178e+02 5.0460091718549592e+01 5.5831155364420312e+01  2.6803313153310876e+02 5.2285698050553414e+01 2.5070056559408219e+01  5.6856777442057648e+01 1.0196161838402457e+01 4.9008843879065900e+01  1.3378777381741548e+02 -7.5574836354516961e+01 5.4198088625106656e+01  1.5783355211259345e+02 -1.0209968895430606e+02 3.2544792565946601e+01  2.0355931099323780e+02 4.5852524002522719e+00 2.1843407781372946e+01  6.5089489350971718e+01 5.5473938565713659e+01 -1.4244407817547671e+01  4.6869979393493047e+01 6.0770222615262632e+01 3.0767614150830028e+01  1.0724330282072580e+02 5.1811460445369619e+01 5.8749440686362711e+00  1.1999028178863050e+02 5.0793059069383418e+01 1.7943680991380177e+01  1.2689629924266761e+02 6.0196519134255219e+01 3.1067142045203031e+01  3.6830292272924831e-01 -1.5172517525027489e+01 -4.3079612304287949e+01  2.8197136033696374e+01 -1.8168035108339417e+01 -3.9232854542775051e+01  -8.3904202476719334e+00 -8.7065804167031722e+00 -3.0897773414336100e+01  1.0276045439400612e+02 -5.2456331133741642e+01 -6.8161812548238260e+01  1.2290426314479038e+02 -6.3505545319775209e+01 -8.3630191836576472e+01  1.3748845855784327e+02 -3.3042124410742588e+01 -8.7993311022043613e+01  1.1348447085928208e+02 -2.6434311198129141e+01 -2.1576738644115323e+01  5.2944515199145378e+01 8.3295124886713879e+01 -1.4740716926385417e-01  3.3997333894130691e+01 7.8893866754229149e+00 1.9555208324577801e+01  4.2588547741207563e+00 2.4759871922145809e+01 3.3392271193903471e+00  1.5766554573278626e+01 2.2504187058215447e+01 1.0123115173086383e+01  1.0763732730799383e+02 4.0566780590463850e+01 -1.3257472708849070e+00  7.0537945351947329e+01 3.7148498613626380e+01 -9.6415279388960702e+00  9.0454869507464352e+01 -1.6267697226331332e+01 -8.0057836378850482e+01  4.3435307109963347e+01 -3.5105987793851283e+00 -7.8948531576815483e+01  9.2636947215809329e+01 -1.6882277458208243e+01 -5.4136352629127281e+01  8.3560704291910810e+01 5.4482073483541491e+00 -3.8363955930139930e+01  1.9728543296749694e+02 1.3834277388222611e+02 1.3568760443035953e+02  2.8449124911788704e+02 2.8070379101748877e+01 2.1452021075668648e+02  6.7233332215354082e+01 1.9526383241593200e+02 1.2685411424211247e+02  1.7659324439905564e+02 1.0218540175004233e+02 1.7688891492861478e+02  1.5553908189819893e+02 2.4302721532536928e+01 3.3188146452356321e+01  1.2153731149181985e+02 -7.2850368869063908e+00 3.7508924947705907e+01  2.1861732867126148e+02 -1.7258956372614551e+00 1.3358101096256016e+02  1.6915473716134474e+02 -5.5102031547979502e+00 1.2601050328107029e+02  5.5331973717190770e+01 4.9829122181745461e+01 3.7446122579127973e+01  9.2459067902521454e+01 8.6159937080133389e+01 6.3549510624839904e+01  1.6410600917382851e+02 8.8996799388124970e+01 9.3573031099436108e+01  7.0359332942112928e+01 5.7613558810992544e+01 -9.1343194361981176e+01  4.9621955122966646e+01 2