<?xml version="1.0"?>
<VTKFile type="UnstructuredGrid"  version="0.1"  >
<UnstructuredGrid>
<Piece  NumberOfPoints="1237" NumberOfCells="4198">
<Points>
<DataArray  type="Float64"  NumberOfComponents="3"  format="ascii">16.79941424799168 24.60460649313291 23.17113876084336  18.146114 22.903234 22.726053  19.2397300105064 23.94790921680569 22.3875312646937  18.49419130302256 24.19161074413307 24.10587986579632  18.290852 22.609426 4.42598  17.936068 23.124485 6.088073  19.52747765750305 22.13915941555786 5.540081058334746  19.62913145401046 23.79233048425859 5.32280932844618  17.094559 22.791235 21.863554  15.72875411876159 23.50856259587203 21.45128056831344  17.89846943049611 24.11819751425848 21.33414985808046  14.888211 22.327982 17.749741  14.325051 22.948761 16.963799  14.805433 23.389452 18.553482  15.37642328783819 23.92669186792441 17.30954848376838  19.440363 27.979034 21.159361  18.764946 26.890524 21.838816  18.569973 28.244646 21.920042  17.86448739894618 27.87351332377404 21.58437957405533  15.505844 31.975128 9.866263999999999  14.66376281033778 30.99524058140157 9.257669873316644  14.461843 32.790646 10.238553  14.871681 32.399639 8.950877  16.349951 15.995463 3.816863  16.274353 17.181999 2.954506  15.296883 18.576059 4.314936  16.8473221344966 18.24756723237253 5.233881052424299  23.262056 22.408806 21.980263  22.337645 24.037346 22.15365  23.476196 23.597576 20.498108  21.4725799779557 23.18401562022313 21.26893049229053  23.817108 29.860323 20.826481  24.31809 31.287642 21.171801  24.612476 30.668098 20.290998  23.68831072633775 31.72454897295216 19.99592107806938  23.55756466007082 28.84713978579372 12.99854272077458  22.92518495574859 25.80619327418232 12.17295565577933  21.5367893584926 27.91236228161534 13.08763801591018  22.79868776478212 28.25592764093956 11.30550568262355  16.264322 26.657925 26.440674  16.011839 25.736786 25.350739  15.989194 27.281675 25.012581  17.56483557456625 26.0839199657307 25.48762804718453  11.911609 11.030614 5.646666  10.934191 11.342886 6.723285  12.194642 11.899702 6.951362  11.92609363893116 13.05008141558008 6.296819157747269  16.28438035586666 16.99504756230326 18.52014104585934  17.88185771163799 17.65929454632714 17.28781645341589  15.97591134748782 18.40077231120316 17.36290676869957  17.25094825698273 18.19880591881165 18.56777877942103  22.267578 26.588278 9.118942000000001  23.746084 26.924934 8.923121999999999  23.119345 27.871275 8.328547  23.35406666595766 28.34368433992712 9.644246448766957  26.662872 27.86867 13.427084  27.076612 26.090744 11.931489  26.26364352543284 25.22968346386975 13.55817077311996  25.23628167502299 27.27724873275373 12.43193433464872  14.219347 18.573311 16.207661  15.1453235837181 17.51050715164101 15.79036627811332  14.520689 17.572872 17.005796  14.847478 7.372294 18.44067  15.47636193894769 7.708245275590659 17.17910925728127  16.90517269962391 8.408571693471245 18.13961886630183  16.20942426121992 7.082583949564549 18.52735266628873  10.722383 14.720904 7.44913  9.871409999999999 14.015862 8.404391  11.45241726180387 14.94160101575495 9.155917222143952  9.667733573851796 15.45136470347931 8.193027552532628  11.646386 14.998699 16.394629  10.97296606068113 13.99555830465579 15.08983287718016  10.519145 15.804045 15.53073  12.14034158159661 14.95738201163948 14.99632966937557  13.47832 24.705887 5.561763  14.279174 23.385265 6.327134  14.743208 24.585421 6.329419  12.9916749859799 24.00806178787196 7.669752923108187  20.080233 15.073701 16.690472  19.521885 13.552641 16.868778  19.20088 14.567559 17.600945  18.71644331764685 15.13440831804488 15.7568882136259  13.53021 13.21745 14.446364  14.824998 13.11365 15.09656  14.713464 14.433931 14.689641  13.4826209136952 13.04051838793592 15.75657414423645  16.652908 13.358996 19.823364  17.225254 12.000365 19.210814  16.583199 11.867745 19.98723  15.09980095963042 12.96888763013052 18.52606681931459  13.487854 20.805481 7.40877  11.87985659528959 22.55793924587553 7.983141979917574  12.09157169533379 20.19476368153451 8.625133074498592  13.8733933499535 22.2473093539168 8.600049343955881  16.384533 24.386837 11.8185  16.62348 24.39962 10.413766  14.79075975558447 24.59500689263851 10.50515902562274  15.6349369642325 25.96118925317817 11.61605052566208  16.105457 18.867413 11.154497  14.17622773577413 19.37730990124699 12.30818897321017  14.87197850468182 17.57896950409602 10.99675351193071  15.02572704078022 18.5036836127989 13.24078431340267  16.560066 33.376274 22.544168  16.316519 31.690681 22.070921  18.149435 32.66824 21.37796  18.192041 31.904751 22.998379  24.93268577879885 28.49731049333712 10.74798749967376  25.083111 26.726202 9.316744  24.79681259850925 28.4746811391453 8.921005539341797  19.224216 21.085316 20.539791  19.713726 19.972397 19.080259  18.448706 19.623617 19.931587  17.52357063758792 21.43553158578378 18.26229907488603  15.798279 13.759947 15.012297  16.168419 12.222995 15.08985  17.19885331674856 13.76596862237055 16.92018665317569  15.04904976526448 12.45132702025914 16.32921664879906  13.145973 15.534109 5.3367  12.971159 16.177999 3.654343  14.083088 17.203718 4.730648  14.17945202872547 15.29653169669239 4.639605373115613  16.15244133113693 10.29357145675559 18.93801194957523  17.42505279838686 10.06565205527527 18.06552194730873  16.66201173389594 9.021746550067176 19.59976688216187  14.74296701129281 13.96162180148304 19.95911381953646  13.73129 15.325843 20.655113  14.39545470615699 13.48350767970017 21.86701846073533  15.657637 13.950867 21.110855  11.512068 18.045288 13.196737  12.806531 18.67585 14.292344  12.3957 17.493725 14.641362  13.55326117355362 17.34906534283093 12.58340997715986  15.971336 20.324263 12.15306  16.09071 21.69425 13.117797  14.35868902760499 21.27862923705066 12.43353365619502  15.05715554978317 20.64336328049349 14.28297851929843  19.777901 32.470539 14.900747  18.760443 32.367157 16.031298  18.73956218759211 30.76764209706407 15.66741760870605  20.51115934519749 31.33254972703394 15.20268534067033  14.172545 26.55954 10.986966  15.98092409032749 25.94362852352788 9.891127196674079  14.2277199134795 26.27380194627695 9.683035119830341  19.472628 22.352301 3.728154  26.815451 23.082172 16.300594  25.79751 23.059879 15.131364  26.675066 24.23983 16.305624  26.90326797504326 24.34568686241066 14.90440028124486  16.06476984495309 15.25790680777626 16.04385786041587  14.019863 16.061783 17.02792  15.75472570496258 16.73105377065922 16.8259283068968  14.76901776938578 15.86788546987682 15.43225510388761  25.375816 28.450567 14.483363  23.82210215307251 27.48811821943538 14.69201673868975  20.839346 30.268276 20.852587  19.317657 30.639963 20.935699  20.184523 31.392111 20.4454  19.67262514388847 30.18184355090835 19.6808661896711  24.503689 29.671127 19.79038  22.16028868557598 30.72496960181221 19.07329328095754  15.274495 17.599232 1.175785  15.837943 16.810564 0.839825  15.914552 17.494843 1.804734  15.962794 16.332752 1.691876  23.801632 18.598383 8.566207  23.985405 17.159016 8.689969  23.098766 17.741072 9.516605999999999  22.64523018475896 17.97806598647053 7.79227531078106  13.80547407522503 17.87203495989265 8.549305266770768  14.79010863169519 16.54955183936665 6.964099577830858  15.52546184583886 18.44457932406441 7.847331770173143  14.42511009875657 16.30167129597288 8.543792482568195  26.917238 25.477835 15.528884  26.135536 26.443708 15.281825  25.2126664768436 24.28956200180457 14.82766980533305  24.76655347565228 25.81169594221481 15.19544255363417  18.15333930342774 29.36568837675105 20.34169734480257  17.9452869477013 31.53222717625181 20.05939842519483  17.79797171228438 30.6071606994621 18.42802425653889  24.294603 29.577444 18.016699  22.82774825702466 28.1307849369882 18.89791170841688  22.88438813369598 29.87069513456655 17.00514812271886  23.406715 23.297709 13.587803  22.695072 23.974104 12.645649  22.675808 23.862696 14.553548  24.0483825514831 24.07073859659225 13.2228800524929  13.105128 13.80507 21.100334  13.267593 14.37054 19.806492  12.306627 22.575726 11.274442  13.8737160586418 21.49575123560352 10.19378137082638  13.53920630298948 23.49752695535608 9.97174639218621  14.07501300079548 22.63570049203415 11.56953851272415  19.765383 22.491327 21.917885  18.041477 22.404179 21.392002  18.89162395693539 22.75942399344347 19.25435292376264  19.27242455608508 25.07681416451502 19.48787584328591  19.80107042760174 24.11255374299883 20.85968609848544  20.79795779647506 22.41979073818855 19.62658038677097  19.091801 32.034481 20.458416  19.47553074602358 32.04163483918482 19.05526014622572  27.055782 31.579859 12.692536  25.82266 31.430899 13.641361  25.53974893945596 32.75695374624793 11.29173708008582  25.28620522022151 30.70217077169982 10.95071283495363  16.84927309728597 27.55725914705484 12.4776095087365  14.91932934603018 28.06750834292076 12.1024943687918  15.27601431082902 26.26407404363918 13.50779067295413  9.610194999999999 22.073956 9.340966999999999  8.086048 21.627581 9.851072  8.484731 22.848028 8.571249999999999  8.543283009977213 20.19814294294807 8.97221364911789  14.554969 12.02354 14.966272  13.683329 11.450211 14.27912  13.85373721601193 10.64051811644249 15.78653904481132  16.147835 15.021767 20.405619  16.079393 16.446018 20.956593  16.690769 15.957524 20.067486  15.59382210827106 16.72807034248187 20.05662248387549  10.387176 13.903832 9.604082  11.074031 13.454584 8.49095  15.65325 14.72815 9.507731  16.37077 15.741863 10.285303  16.44543789521931 16.09626381532255 8.567567926494752  15.52088868090581 16.91668294183751 9.760976791705012  13.093555 15.10396 6.910181  12.624555 14.432756 7.414083  12.310028 14.467275 6.398103  13.33758161767874 13.91515669513533 6.450115388972546  25.182192 26.165398 17.274826  23.41522158895635 28.0923108840385 16.3538057398907  25.271093 27.122564 15.878519  23.12005815271648 26.05618994589877 15.94679165441918  14.772 14.633008 2.658885  14.79626059280449 16.49458249740045 3.219549731593325  24.683502 24.130955 19.008112  24.369143
[...]
<PointData  Vectors="u"> 
<DataArray  type="Float64"  Name="u"  NumberOfComponents="3" format="ascii">8.4078156389165130e+01 4.5750535917699978e+01 3.0148609813727944e+01  8.5994466548969370e+01 8.3546964977642180e+00 4.1289147922911084e+01  6.0517566543845092e+01 1.1923612184657822e+01 4.2022245657437516e+01  7.2350435181593355e+01 2.1103663631514898e+01 4.6657154955860150e+01  7.5958533070888578e+01 8.8902031925837306e+01 -4.7414632727502429e+01  8.1201233488090622e+01 1.1553517789309008e+02 -2.8934394214449114e+01  9.3128916435585879e+01 4.2430195536947046e+01 -3.0395723857731738e+01  5.4047725425748069e+01 1.5158716966338364e+01 -4.4438235621885326e+01  8.7996759167326729e+01 5.7654373313350028e+01 2.5785223533496350e+01  6.1307932495167876e+01 4.7580524466111143e+01 -7.3450632412432988e+00  6.2276551792410501e+01 3.9079366426182261e+01 2.5868208228499391e+01  9.5717516512372161e+00 6.3697114530448097e+01 4.7274503699482850e+01  1.1357211621265408e+01 6.2770414067223228e+01 5.3810140891067697e+01  -8.0915715296899666e+00 4.4825877704208921e+01 3.7846424298891527e+01  2.0042288542632505e+01 5.1203993767774776e+01 4.1693323059156434e+01  4.7294638879936521e+01 4.8712310785557065e+01 -2.3144332940175399e+01  1.2838381037347911e+01 3.3264622278289899e+01 -1.9929588947173134e+01  8.5983538198282314e+00 4.9777874912408919e+01 -1.1451845374898596e+01  2.1008442589927512e+01 5.2079079523823268e+01 4.5449031305893346e+00  9.9344462779586081e+01 -4.4750913212842001e+01 7.5980434064157421e+01  1.0465799064840627e+02 -4.9978335442926458e+01 3.7911393241601864e+01  1.4252586803634159e+02 -7.0810601411550550e+01 9.5303409463042343e+01  1.0366057642357981e+02 -9.2600298142722082e+01 2.3774557408501874e+01  1.7253585907252798e+02 1.8915894141035047e+01 9.4855638231247625e+01  1.3261106737560962e+02 5.2100313648852264e+01 1.5026702280379388e+02  8.2249040846711011e+01 8.6103923984533921e+01 5.5402744194205383e+01  1.2001404015174040e+02 3.9137154750683273e+01 6.4200474754413763e+00  2.7668304752593635e+01 -5.3079106570306367e+00 1.0927830068722052e+02  4.2368327955470043e+01 -6.4333755921668363e+00 8.0838163011887957e+01  1.2892002951245388e+01 2.7054982814299880e+01 -1.9573626335054161e+01  4.4810582498008671e+01 1.5150969174544047e+01 3.7298363101443393e+01  3.1101500774331260e+01 1.0998574323381685e+02 1.1339574006989269e+01  1.2024338694775581e+02 1.6881372633072868e+02 1.3989507771576919e+02  1.4478332902663347e+01 1.5052164373899666e+02 3.5397867375610851e+01  6.1026047821159345e+01 1.0936724409122806e+02 4.6852941355771634e+01  7.0940472514219920e+01 4.8235518499790892e+01 -3.0256639669575783e+01  6.0807304356911942e+01 6.0956545465680474e+00 -6.0888794578466110e-01  6.3853195002915555e+01 2.5886278874133829e+01 2.2020840955053349e+00  8.8254479015753731e+01 4.7273414719505816e+01 -6.7835154961223623e+00  9.5577682273191336e+00 4.6154298899455490e+01 7.1013686065993895e+01  6.5808018097467667e+01 8.9653167829169178e+01 9.3256219818146633e+01  1.2849910717988063e+01 6.0832705412701223e+01 6.3398722719304807e+01  3.8974518751717447e+01 4.2640112237952870e+01 6.7154216425974198e+01  4.6986161137406839e+01 7.9927781726371634e+01 2.8322596252279784e+01  9.0927666252753141e+01 5.5204544335132510e+01 4.6423977085590685e+01  7.4346731851285568e+01 7.1741086537135644e+01 6.3031794904408628e+01  1.1276205168361105e+02 5.1239919787618810e+01 4.2334981894194875e+01  3.2188416771603585e+01 5.7719933190090188e+01 1.0159678546828772e+01  2.6837505718557349e+01 4.7721708451178074e+01 1.5819357974540441e+01  3.0271306318413437e+01 6.2832123518390304e+01 3.0834169243636047e+01  2.9535893357920180e+01 6.7708359662217248e+01 1.6124850267610082e+01  1.3688602948457995e+02 6.3906052536699292e+01 -2.5089497443644429e+01  7.0551495729680397e+01 4.9385893440935988e+01 -1.9909497463303754e+01  4.6846216643078435e+01 -1.5374383514142743e+01 3.5362703866737689e+01  7.4208226305252907e+01 3.9560348105611943e+01 -4.2530567178404430e+00  2.7153237818809028e+00 3.9632541323815879e+01 -5.6059766920118740e+01  1.6593679784964415e+01 2.0486815934123893e+01 1.0588044620971329e+01  6.3771260916638646e+01 6.9373059670171795e+00 -1.9342058782336196e+01  5.6457162449366791e+01 4.4770943006784975e+01 -3.2970423292078848e+01  3.8485237522257734e+01 7.3116862372192870e+01 5.8332548149462752e+01  5.4605692273145294e+01 5.5632807914676363e+01 4.1977852489649685e+01  3.3383475804103377e+01 6.9249444375154781e+01 4.8481070834489955e+01  8.9324722755228791e+01 -3.3095677462015992e+01 1.5309572164662708e+02  1.7257427923607420e+02 -1.3461245659112269e+01 7.8107823545805601e+01  1.2804646228007812e+02 -5.1771267083932386e+01 9.3819726285446787e+00  1.1163331766686234e+02 -4.7900377209841437e+01 4.5776493621382457e+01  1.3309503698565607e+02 9.0619100366806116e+00 6.9811235511315800e+01  1.4558963998225832e+02 2.9913111753843562e+01 3.2008256120998219e+01  1.2050554892311288e+02 4.8320277061755545e+00 -1.2387314198241228e+01  1.0039251475453536e+02 2.4204650616316862e+01 1.6188443783432128e+01  1.5814798290763227e+02 8.0010197111357306e-01 -1.8504574508735431e+01  1.2058494863386920e+02 2.1977286459525626e+01 2.7920054306297254e-01  1.3665691930258822e+02 1.8734059709870497e+01 -2.5314115388487913e+01  1.3270210470903152e+02 3.6420793677820718e+01 3.5460069519011310e+00  1.0636967299767475e+02 9.6055644022094118e+00 6.7642605115803406e+01  1.1210714300150516e+02 -1.2859699434256220e+00 4.5699605363160963e+01  1.1963149176641610e+02 1.9875897807696379e+01 5.8911962108027623e+01  1.0294504771286779e+02 2.3895936247335754e+01 5.0347250077201622e+01  2.1629287906333147e+01 -8.9269022367783428e+00 -3.6566269693714737e+01  2.3235909114357444e+01 1.1033653006217632e+01 -4.1603253384662750e+01  3.0217152974028966e+01 3.2711462782108813e+00 -3.3557233853460595e+01  5.6918021150182902e+01 -1.5195864576231841e+01 -2.2748050561701742e+01  1.0963652711499748e+02 4.4377249793626419e+01 7.3882238614867532e+01  1.5282807877817024e+02 1.8129894556107306e+01 3.1988632953686242e+01  1.3284173151897770e+02 3.3882319403957730e+01 3.0767261271028925e+01  1.2991934418528561e+02 2.6144806228183633e+01 4.0387963013876586e+01  2.4970341831484255e+01 9.0076068516207597e-01 -2.8287582366955238e+01  4.2961055627638942e+01 -5.3699281178344613e+01 -2.8529285599073528e+01  3.5017507286520591e+01 -5.3226870910186129e+01 -3.9688969829373889e+01  6.9764664920711624e+01 1.7236665095254624e+00 2.0016039381002681e+01  1.4454451545361962e+02 1.7237181248774718e+00 -4.4068598928133529e+00  1.1659291861453529e+02 3.3006440577043612e+01 4.7999683722776098e+01  1.2656728162495368e+02 3.1294101568048784e+01 3.4805253434057853e+01  9.4341187212595344e+01 2.2219609478505586e+01 2.1377038172704154e+01  3.7527836574268605e+01 6.1168074354462739e+01 4.5831717845642657e+01  6.0201775649092767e+01 8.7151348427509987e+01 8.0437014383630654e+00  6.3725576657475031e+01 4.7916643681018229e+01 4.6762135450489559e+01  5.6272471570283997e+01 3.8388260185391140e+01 4.7205009754240081e+01  3.8270209003326694e+00 1.3190347528801361e+01 2.0629052193861170e+00  5.4048942239956318e+01 5.5600087717184188e+01 3.3734313444975413e+01  6.9868039005716739e+01 2.1641342105675079e+01 -1.2251568464951538e+01  5.3161434211290910e+01 4.8110258653212441e+01 3.6531157039007297e+01  9.0692374923156649e+00 2.6367427723798659e+01 2.7316534226129985e+01  8.8292620207688732e-01 3.4329052892350397e+01 1.3817149214136984e+01  -7.4123270547262612e+00 1.3890898821808491e+01 1.0014285764025209e+01  1.0100069439208957e+01 5.2370304938625623e+01 3.7486531594991511e+01  9.9665721664043247e+01 5.7739247543869823e+01 -2.0809709556178742e+01  7.2380247971058978e+01 7.2976237214909446e+01 -1.2898803396382736e+01  1.1199799970169393e+02 3.2278381150210215e+01 1.6847426297471419e+01  9.0119144056124696e+01 7.6413775205699935e+01 4.6175495233902701e+01  7.6696096859265822e+01 1.0048836341333757e+02 4.9850743361444323e+01  5.2087799138143460e+01 9.3733631007815646e+01 2.1270487464211939e+01  4.1861069519887714e+01 6.9173144775394761e+01 3.4629771341555752e+01  1.1295992057426788e+02 3.0281721797060781e+00 -2.9684406205623195e+00  1.2865721151313446e+02 -1.5510764228956271e+01 -2.4549214783732087e+00  6.3936178145299856e+01 -3.5556887064828095e+00 -1.0814447784819821e+01  1.2246652614841447e+02 4.9353084777906103e-01 2.5203861760570689e+01  1.3175659804803763e+02 1.1359976817888226e+02 5.8928101594325589e+01  1.0949345046198162e+02 8.6920922371633509e+01 4.3269101310172104e+01  6.6229556574489820e+01 8.6884565904966905e+01 6.6044899740345144e+01  1.2525040724164589e+02 7.5913761419884082e+01 6.0051180476713341e+01  8.8929600483172408e+01 -5.8488177723258396e+01 1.4238060286560303e+01  1.0621540043533777e+02 -7.1052293041781624e+01 -6.4712866264634439e+00  8.1028745109638919e+01 -5.5288238338035079e+01 9.2247858725138752e+00  3.2344432314532717e+01 2.0132502801541019e+01 6.0663415559546614e+00  2.0357640584457201e+01 3.5643455788526182e+01 -7.7033973366702773e+00  2.1451570517368367e+01 1.1236447001018567e+01 -1.4530074346966428e+01  9.1208857809075017e+00 1.5944893290680522e+01 -2.3138628624065642e+01  1.6242121823407035e+02 8.0297843017118993e+01 1.1119039229492142e+01  8.2898483886082516e+01 1.0259661696567662e+02 5.1049534034846459e+01  1.4081830546972219e+02 9.7384907097287652e+01 3.6878853061668543e+01  9.1675383299197648e+01 5.4078905011865054e+01 1.7353572221367674e+01  9.5450078283539526e+00 4.2028435723421005e+01 5.4350806107328722e+01  2.9338534344266574e+01 7.0898970091913284e+01 6.1429185418421703e+01  3.2311864981068652e+01 5.9116818765930809e+01 5.1921379193657678e+01  3.3122898773673789e+01 6.4112881391290614e+01 5.2583756394319913e+01  1.8082948226806033e+02 1.2337852507667867e+02 2.6449559154082621e+01  1.7317508107851057e+02 8.8077841814649219e+01 6.6806277564923334e+01  1.2010300644460116e+02 3.4282554369513853e+01 4.9924749362652449e+01  1.1745172980873555e+02 7.0031994431863438e+01 -1.1287182326787106e+00  5.5457128813592035e+01 1.8607481996873847e+01 8.5890145923521530e+01  9.5541033027958548e+01 3.4954041416008927e+01 2.1888461411207793e+01  8.9862728308124773e+01 2.0288370680513339e+01 5.5163380425227430e+01  9.2430529913330673e+01 6.6179003619658900e+01 -5.5154935253188512e+01  7.8458092954637294e+01 -4.9782977517954336e+01 2.8787937891851719e+01  6.1857041545909766e+01 7.6829191365334237e-01 -1.7715223659326856e+01  6.8965422968318407e+01 -1.9681975474501154e+01 -1.2645838489308726e+01  5.6071440183987896e+01 7.8161983937687065e+00 -3.6863500799964569e+01  7.4611406750427619e+01 2.2459261216552378e+01 1.3236953416462406e+01  5.8835449865978973e+01 7.5359977281430190e+01 4.8768616892133444e+01  4.9393081320900457e+01 4.8405390823049942e+01 2.5616958597853746e+01  8.9581404394897064e+01 4.3939189956908749e+01 3.2075969588736918e+01  3.9878929320330045e+01 4.3634079564348490e+01 -6.8139858825055597e+01  4.3209984980941123e+01 2.4181262610504362e+01 -3.9773803917647513e+01  8.0695295215991479e+01 7.0462106883444605e+01 -3.9427114192734285e+00  5.4509939955631332e+01 3.4924456785867413e+01 -3.9440747036569100e+01  1.0256473777598751e+02 8.0808711236916650e+01 -5.0252728808272815e+00  6.7539585758091448e+01 5.6012847895283336e+01 -3.8341944698443537e+00  3.3524856112645622e+00 9.8866384087736833e+01 1.9657417771622285e+01  5.5609403010208311e+01 7.9325060841766785e+01 7.9390839850186845e+00  1.8811682103010341e+01 2.1352520991868001e+01 3.5740518652221631e+01  1.3665862742158623e+01 3.2951019535469250e+01 3.4564961748339392e+01  3.5475507112430749e+00 1.7770523210856410e+01 9.9612871832306240e+01  1.3800592725606103e+01 4.6856812545775561e+01 6.8790223693967874e+01  1.7723246825252890e+01 6.6195744993064398e+00 -2.2087309094438723e+01  3.7208897356933934e+00 1.9702360789320048e+00 -1.2626935013456880e+01  1.3292515922435300e+01 -5.0701404210029022e+00 -1.9945825312764851e+00  4.9392167905847238e+01 9.1051154917376973e+00 -1.6084391313276580e+01  1.2374617148107916e+02 1.9472939004154433e+01 -2.2462504781722117e+01  1.2115873400220069e+02 2.5870095285209313e+01 -2.4442822686286945e+01  1.0799888271619156e+02 6.8890845668705953e+00 -5.3311575391768443e+01  1.2799361130875150e+02 1.2841250156680884e+01 -2.8760471093818616e+01  6.4281454350332353e+01 -4.2445502401392066e+00 -3.8707516528715878e+01  5.6895658069601005e+01 -3.1770573697785163e+00 -4.8706974618184496e+01  5.1543612340884543e+01 2.5151634768528845e+00 -3.2399391964610544e+01  4.5532762694913266e+01 6.1229585098471384e+00 -4.4405845362523642e+01  3.7783225673339899e+01 4.8866681481838064e+01 6.9812253143566014e+00  4.0565606519072062e+01 3.7388911561144319e+01 1.6257639720550436e+00  6.4775235748861903e+01 4.4380350020609676e+01 2.9638481224258928e+01  -8.6869806579200421e+00 6.2054650228652513e+01 -1.3786988637435944e+00  3.2588791435379463e+01 4.9619949388655812e+01 -1.2104466943868323e+01  3.4058674098256134e+01 5.8627656222886607e+01 -1.6260729279593484e+01  1.9701998298869260e+01 -1.2173528726075530e+01 -1.8428594969497222e+01  2.8002533347350280e+01 -1.8766532903857073e+01 -2.6449393034563204e+00  1.9377568753635956e+01 -1.3921545584062416e+01 -3.8535899446477075e+01  3.2524255220421360e+01 -1.7479747686955065e+00 -1.6132771222585273e+01  -1.0341194570764654e+00 1.3763966697498388e+01 -1.9124118297201623e+01  9.8583794902721174e+00 2.9083233969346370e+01 3.2945936731933628e+01  4.9232606669126596e+01 5.0536584666075790e+01 8.4804295242752019e+01  6.1659418920899554e+01 4.0312808802808128e+01 2.9932945779698596e+01  7.2313726375618955e+01 3.7623516899507827e+01 5.3316753910856256e+01  3.9618883728812520e+01 5.5550481681655675e+01 5.4799693925720504e+01  6.5955993779551974e+01 3.1491040601277060e+01 5.7768018448415994e+01  8.1256488490890078e+01 5.3700490444484345e+01 5.1133958760084269e+01  6.3981093725849213e+01 5.8656021504556520e+01 3.1464263168975968e+01  6.0402797405722268e+01 4.3641494052872886e+01 1.1379406177643443e+01  5.8387303213808607e+01 2.8829502009734291e+01 2.3398800012367534e+01  7.4092154337127184e+01 4.5648423144938860e+01 2.3822498716675494e+01  8.1788735887833695e+01 3.8433467575453115e+01 -5.3099554855084214e+01  9.1638325722015722e+01 6.6950794699895013e+01 -6.2095036914158863e-01  1.5084839130802675e+02 9.0020436024652255e+01 -7.0826049152367460e+01  9.4306269669214515e+01 8.7643123708452450e+01 -6.5311379090368192e+01  1.0799446567479684e+02 4.6916982883766799e+01 9.7130484134584947e+00  1.0919730124240733e+02 5.3280817369719031e+01 -5.5708381618159475e+00  6.4987335052070520e+01 2.3922889644753134e+01 4.0260573577327222e+01  5.0970468025976778e+01 -9.2644096755147629e+00 7.0144366483076723e+01  2.8729303517497776e+01 3.8754796242459548e+01 5.2458017331173608e+01  1.5648155220699098e+02 4.6114212990102281e+01 -1.7093037821578875e+01  1.3689742125827001e+02 3.7499638136208468e+01 -8.5539987914330737e+01  1.1278479364187901e+02 5.1506808060023701e+01 -1.4066009356447660e+01  1.0908963539903014e+02 1.3750413227392722e+01 -3.7800311326922305e+01  1.5851347544169255e+02 1.1563183546847071e+01 5.6085661819410255e+01  1.2091626749339420e+02 4.3551789646349848e+00 8.1228008060485351e+01  1.5198689331655686e+02 7.7291329573816308e+00 4.8892560093397620e+01  2.3559315375219409e+01 3.9837393099021703e+01 -1.7250354057670414e+01  3.0272492114224875e+01 5.4492195529383302e+01 -1.9532893713480508e+01  2.1397389121147945e+01 5.3811914665156728e+01 -1.1746358991672983e+01  2.9041963519081527e+01 6.1355067333518306e+01 -1.0333531991427138e+01  1.3867327359916305e+02 -1.4399854840225963e+01 -1.9410280598821601e+01  7.3288396469441295e+01 -5.2966663129331202e+01 -1.3222916504151291e+01  1.8213295645197312e+02 -3.5479237889056954e+01 -3.4417401452028102e+01  1.3937795264497456e+02 -6.7567105263722581e+01 -1.1072485248315478e+02  1.5483104246077119e+02 -3.1681149447406664e+01 -3.7252849004145311e+01  1.0150726658320589e+02 -1.0578183395170871e+01 -4.8054002323516372e+01  9.5894939234406237e+01 7.7929408229037733e+01 -2.5107696811290300e+01  1.3151104362157994e+02 5.2471023945906062e+01 -1.1959993411018968e+00  1.7926738937236422e+02 6.2463730352617723e+01 3.9908543487026421e+01  1.4027084215218551e+02 7.1979056732230788e+01 3.4413134440024876e+01  1.5857544705423907e+01 6.3972578138224172e+00 -5.6428920474526414e+01  2.9809836963992421e+01 3.1695685795691563e+01 -3.4559181850007505e+01  2.4717082319629441e+01 1.8636084319976995e+00 -6.4019022564444796e+01  4.0355177279544087e+01 1.2596982075407592e+01 -4.3939925275158487e+01  6.9913638340587980e+01 7.2074166005272602e+01 5.5259524545349201e+01  8.4128939679344100e+01 6.1200276808399508e+01 8.4483627399278106e+01  2.7126486299796383e+01 2.0650850006810590e+01 -3.6215917763135764e+01  2.1788270629889492e+01 2.6755360927766972e+01 -2.0509601134274554e+01  3.7089657294474372e+00 1.7305160033068518e+01 -3.3084430334563500e+01  3.9131304338489493e+01 2.4973967646482198e+01 -3.4914584610844805e+01  5.2594730111354750e+01 -3.9845949276180704e+01 -3.9821322222130529e+00  3.5180557164085400e+01 6.4146212812749610e+00 -1.5294598595053886e+01  2.7133771574093391e+01 -4.6810754780140753e+00 -1.3935126207520124e+01  8.3091758450615828e+01 -2.6449267640028427e+01 6.8196186553987474e+01  9.3907765255235148e+01 -3.1329231394175018e+01 2.4322612598615951e+01  9.0716375353811358e+01 -2.7622429434760871e+01 5.9423680410087023e+01  1.0533793843851325e+02 -2.3771292584035255e+01 -8.9130875365426576e+01  8.8072071365143557e+01 -6.0236463247851164e+00 -6.7583911391506135e+01  6.0305368684152157e+01 5.5453663089415620e+01 -5.8616777644669478e+00  4.0877847669259225e+01 7.2366204908202803e+01 3.3357302333780675e-01  5.9835223519601470e+01 5.4972677245897316e+01 -2.9938645959234567e+00  9.0181792662316155e+01 -4.0010766018956128e+00 5.0609583831922464e+01  1.2439813063356135e+02 -5.4709012668005279e+00 2.8308150998759924e+01  9.7622925288849842e+01 -4.7559830511210016e+01 3.2429464564942670e+01  1.0436683380525410e+02 -1.8927121240203931e+01 3.9783140917970925e+01  7.1171922068994334e+01 -4.3802320958531453e+01 -7.5478619587568687e+01  4.1630299232435114e+01 -7.1587524545289384e+01 -6.3628987112434004e+01  6.4759282716887441e+01 -9.7642200152708938e+00 -2.8408959629912339e+01  1.1679828744633430e+02 -4.1308908987016821e+01 -5.0907802244996482e+01  7.3536625561242218e+01 2.8644015054424230e+01 -4.3782017943243332e+01  1.0060006149677130e+02 1.2388788489829176e+01 -1.0478794519804758e+01  1.1232307906874853e+02 -2.1927755610871662e+00 1.7530813375530834e+00  1.2742580603685767e+02 8.2486127787795553e+01 2.7831158335076356e+01  9.8968486321304908e+01 1.5322752597069567e+01 4.2532906009171029e+01  7.0199780128329010e+01 5.8060994439112974e+01 3.2139796879270712e+01  3.0148767230410769e+01 6.0605241896811634e+01 -4.6175172852879371e+01  6.7349121406908267e+01 -1.2485530047634949e+01 -1.0492875878806582e+00  1.1774962757116905e+01 1.4336647116693479e+01 -6.5971996661866292e+00  1.1335887689330600e+02 -2.4306778844390326e+01 -6.3806777963381307e+01  6.8709887082118996e+01 3.4309178137501519e+01 -2.5073397265195538e+01  1.0572658695142979e+02 3.1594414450435135e+01 -4.9903706867387525e+00  5.9234848571913034e+01 3.4751187556704659e+00 -3.8743128876543771e+01  8.9194617499440639e+01 4.4579765347372671e+01 8.6047046170449050e+01  8.7306889288951538e+01 5.0077556117048694e+01 1.0190837589641449e+01  7.7740909177605303e+01 5.9386399646641202e+01 2.2610797173325174e+01  9.4232181801122607e+01 5.5062615429982266e+01 -2.2343804399125517e+01  1.0506318890525105e+02 2.9819083475416651e+01 -1.4407082280053978e+00  1.2453711388669058e+02 -3.0234035991252455e+00 1.0763911537239892e+02  9.7051209581384597e+01 -2.5617621928390189e+01 1.2447349401892666e+02  4.6901000620121550e+01 2.0175021927427530e+01 9.9779313017506823e+01  8.5751989962459987e+01 9.9680140186891677e+00 8.3366427573095692e+01  8.0660385106699835e+00 5.9898490179294271e+01 5.5956481627296228e+01  1.7660332129981890e+02 -1.1272451775269561e+01 -3.1304638301233435e+01  1.5020538171603559e+02 2.7804377172149536e+0