<?xml version="1.0"?>
<VTKFile type="UnstructuredGrid"  version="0.1"  >
<UnstructuredGrid>
<Piece  NumberOfPoints="1186" NumberOfCells="4382">
<Points>
<DataArray  type="Float64"  NumberOfComponents="3"  format="ascii">21.875109 29.693321 27.174175  23.248989 30.274828 26.663322  22.69297733705231 30.52345182579761 28.57738909344157  23.98835938662714 29.4754134603602 27.76430797303302  27.27349734869854 23.50033885540123 35.66452755765501  27.63057694311821 24.49719673356375 37.1434365587057  26.310349 24.047176 37.794735  27.0543614174192 22.98478599504704 37.25089597550202  25.50474926658383 22.40531879374142 36.20192395830863  26.24121185103339 23.42717977536159 34.02394262800055  26.83130684443953 21.83978544084195 35.97183649719994  26.01870860464278 21.01607144239694 34.2206792758689  20.34217540441008 30.94176115095182 28.07369951504002  21.860861 30.978186 27.049639  20.548445 30.556133 27.165522  25.478008 20.15727 38.265163  26.76165 20.279181 39.277157  25.927156 18.888727 39.164341  27.30516756196691 19.51752031014398 38.00478663026325  21.401131 20.9091 30.133209  21.824112 22.1346 30.577898  21.801973 20.832096 31.250626  23.52343056057761 20.84486543641665 30.10634614645468  21.037849 22.780125 22.652899  21.377769 22.56448 23.650848  22.206396 22.069073 22.684021  22.337645 24.037346 22.15365  24.4331032782854 19.10334070084133 32.84325518244611  26.11516882444566 21.34532548574294 32.51288702110441  25.83888365107529 19.02745405254516 31.99768249309716  12.865725 30.549925 31.58032  14.461902 30.250158 30.963356  14.478126 31.437176 31.173027  14.24962610243645 30.4537177766633 32.45074226159696  27.617762 21.916403 28.782112  27.282631 23.306063 28.261587  27.671703 22.244009 27.64992  26.48124165100097 22.24405384901802 29.04610192786879  16.277306 32.788628 34.270859  16.746464 31.885647 34.939095  16.67862486818228 31.28967246771138 33.33260411050047  17.69310615378565 32.34942627569119 34.08534203347786  21.426325 26.159191 28.186615  20.921843 27.15448 27.858118  20.629951 26.226082 28.911295  21.43650944182444 27.43567116581838 28.67323650471103  20.856035 17.42239 32.275009  22.17009456140849 18.80845296123536 33.58611903216813  21.35108141854242 17.08093916846398 34.19362378749199  23.12940742595719 17.19336480911176 33.02110421049332  22.4640234392994 33.58014088754311 29.98313970488231  23.37087909792902 32.4823262364006 31.95363559435039  21.94083982636654 32.00002900060284 31.59040340472844  23.40427245760558 31.83577251959085 30.19039021136287  28.142374 21.712305 32.750404  27.46694112722539 19.42035891135189 33.08406016016179  27.19951742215371 20.01639510277997 31.40231246690643  26.390989 28.178122 30.783493  26.639238 27.888723 29.536324  25.18293509859707 26.83799338363055 30.36774849311921  24.81014412577453 28.79609696063112 29.53874018650403  24.683931 40.003617 24.97451  25.515766 40.003617 26.41625  23.736696 40.003617 26.202049  25.27648990268477 38.27765366193208 26.25954402500962  19.973347 38.413609 24.692127  21.09711383281632 37.34906775640901 25.91782431944432  20.816755 37.494129 24.754929  20.60156288414963 38.87619631313602 25.33120629819327  27.434017 31.666138 38.20916  28.88177741882668 30.90345436053992 36.86611627766306  28.59928463990128 30.36780908794309 38.11223092231792  27.40078342409683 29.8390277361579 37.1575307999409  24.83487035174265 17.56021583377044 34.7217280553391  23.7099660556728 19.97927737385927 35.20769262576109  23.39544214042581 17.85948277720794 35.93919434523834  25.3834063110964 19.76313623795006 36.46011334611342  16.339495 24.369007 37.184399  17.665119 23.152575 36.295567  16.959396 24.760969 35.786816  17.1538573182322 24.85139712126142 38.1247994343777  24.943087 16.428158 30.589571  23.33969254484892 17.59702249175462 29.94758088808981  24.07158336695067 17.33347211327211 31.49664030682112  24.43701060713767 18.0499959830163 29.63914912875719  20.083529 22.908091 23.372805  18.972717 22.242779 24.239134  20.605116 21.950623 24.719082  20.82372474614904 23.8997977273566 24.93837487058486  20.332865 25.906664 28.139894  21.292984 25.548697 27.792768  20.60103 24.676243 28.38765  20.32172089522129 24.77003999890606 27.12356244178297  26.32226275152001 21.14607929652852 37.08435692330384  25.844419 22.170111 37.629883  27.355162 33.915268 32.556149  26.400732 34.647362 32.645981  26.619858 33.260448 32.7169  26.91585322292278 34.19348695988882 33.60429961950593  21.43457 33.210121 26.641903  19.988356 32.844509 26.662355  20.97982 31.969378 27.009714  20.22946160894747 32.7034461898218 28.55547352925732  15.45027667643325 30.87226922128711 32.20934785004458  17.16636996688465 29.5387277954515 32.16741343098334  15.39793273015579 29.63402492507673 32.95770050242487  15.51664503768801 29.51240243249222 31.49252117657681  22.546513 28.543169 34.771179  23.455486 29.575907 35.144863  23.761312 28.266302 34.580429  22.90002603146367 29.90683221075128 34.13910914470747  22.54971845711432 25.25507065180886 27.63640434993533  21.67307997421269 25.0510584077233 26.60038945383993  22.42389871597792 25.86312947872469 26.92658931090241  23.27122093873649 24.94715475014414 26.45138435098715  21.18500028034713 23.18946487572833 26.51684424055109  20.01669115159952 23.70718108317766 27.84087994857252  20.55580445703207 22.05979806055716 28.01778208019283  21.34649040569433 23.5948805277475 28.4790753969981  26.1031810289768 18.76243982064992 34.3963357761382  23.388052 27.134073 34.710255  22.186497 27.19418 35.331532  21.24869549961091 27.41366631279011 34.37559927597795  23.03240651743376 16.32770428090043 34.86373560689457  23.697451 15.208926 33.915539  24.57257204883424 16.10968674445513 33.88075067199931  24.65361393046063 15.83398197335988 35.83647825868346  23.75907725046784 24.09865467486338 28.34594192220942  25.65965244042168 23.00971202754564 27.65928639498247  25.54514359346204 23.56221287154397 29.95247579525726  24.65728848274576 21.89686420239166 29.09203810893623  21.373665 24.103277 32.36105  20.561634 24.380653 33.437489  21.162098 22.935331 33.293385  21.9287195752318 25.26733986823478 33.0354826143522  24.10898231793425 17.77653340008226 28.3291491051867  22.57332361094477 18.21810705336301 27.99533187569411  23.52124170795921 16.51857156678843 28.05408350928805  24.50757450064855 23.5233288849203 26.15173235454347  22.52561549823621 24.29916070631518 25.70058041126106  24.221521 24.656765 24.644863  22.77243409378585 22.99814612960967 24.63702781551172  29.084326 22.619463 34.170704  27.90889 24.022921 33.531563  27.741316 22.810972 33.70536  29.212135 35.763783 35.226845  28.48621078038302 34.32876870301151 36.53832036465984  29.91199906157714 36.09029646074988 37.59932989955602  28.2427632254199 35.7632505130682 36.07222586253793  23.721619 37.017948 22.866856  23.034388 36.681885 23.929689  23.76535 35.672623 22.979239  24.85090133895689 36.67542928601536 23.7614777958816  20.35062682392347 34.08700172483024 27.78408483459883  22.37746799826448 34.60714495523698 27.33512217409289  22.30808498951459 32.12709633886734 28.11058583195292  27.081345 19.63493 27.814854  26.070816 18.519278 27.674543  25.1010362656241 19.722394717352 28.70872025854101  25.38361834744678 19.72109649987036 27.26344184730714  22.832705 34.083809 35.130569  22.378908 34.983459 33.962234  23.294176 35.255478 35.067844  23.6425309403395 33.84859812884827 33.80515665320294  21.39200042067501 31.52696783169198 29.72767186399146  30.933367 28.905102 36.4692  30.74471003465774 31.17944344946643 37.87617394519285  31.878494 29.898037 36.960106  30.350819 30.027447 35.69685  27.09228711377352 27.19353457830614 34.50864685335147  27.22287503250133 28.93002809561713 34.20056208291102  25.9102252338236 28.4283230655492 34.79564945915479  26.95306131349064 27.97511258897926 35.85421416790797  31.624813 29.587404 39.990357  32.218891 28.723669 38.3512  32.313927 28.780687 39.990357  31.22742657267186 29.12824155450804 38.96479645777702  20.26271672251224 27.58096208097416 31.08849551774397  19.61559785969608 29.34163555917321 32.11787319269523  20.02494203475958 28.74611805686664 30.08844976752169  18.73056826337223 27.9746050996372 31.72258954979809  19.960484 19.001759 26.569563  21.033482 19.55559 26.23876  19.28295716406049 20.90219614773253 27.11605472381053  20.4170856484917 20.16711147367576 28.28780097987457  24.075239 35.568367 31.789471  24.404806 36.241093 32.467789  24.440653 36.663822 31.878782  23.08706369482369 36.76828613905454 31.96849691921849  21.981249 16.406065 32.135944  14.812612045999 28.58212495821817 32.06605385530897  15.008504 28.511055 33.701683  16.22138329873959 27.70317828862451 32.73757911886337  22.72516223868609 22.53300545465709 27.11714410509956  21.46307067556443 20.96392815392478 26.96033044357883  21.79731428300554 21.0833722848286 28.8490581778784  20.353516 31.718361 35.469593  19.460121 32.555599 35.670551  19.07028491248961 32.12013601976455 34.35544065227887  19.3764321387504 30.96326595309137 35.66992884128575  23.68058876624728 21.22582453791609 32.46563084631103  21.392658 21.163748 32.71328  22.26635617477755 21.77380036401679 34.28595789092062  31.633657 27.799097 39.208897  30.37844786143867 27.96248732349785 38.74798472581774  31.562561 27.921495 38.625484  30.786503 27.514391 39.31176  28.96721638074632 22.52983374009249 37.69639011416766  29.20818199093826 25.12720633605618 38.03374130977213  29.54046004020515 23.19422676175816 35.99114336209987  23.55271336589006 22.62840061274047 30.89799669320838  18.60648536484311 31.44730964924047 30.96095201832724  17.813765 33.947807 30.492601  17.090532 32.119652 30.352371  17.88729429251845 33.10744385340945 32.48161297113071  20.467054 29.577154 36.370132  21.350832 28.440006 35.420532  19.78650624770456 27.519915442015 35.73332793233313  20.02156547520892 29.43722484500124 34.41249907380013  24.407585248771 22.4242121468199 34.35180073505563  23.16735758180104 23.35139009831832 36.26015119449998  25.00207989915916 24.22898439546671 35.32613601046921  22.7907
[...]
<PointData  Vectors="u"> 
<DataArray  type="Float64"  Name="u"  NumberOfComponents="3" format="ascii">4.9354962110654931e+01 1.3695881077555233e+01 -1.0521014503168470e+01  3.6314509497186165e+01 2.1644581748697057e+01 -1.8519451590266346e+01  3.8676013350845245e+01 9.3574522461550327e+00 -4.8356929573261798e-01  2.5899365186366467e+01 1.6568128296560023e+01 -2.4706540485765816e+00  9.5228691333964463e+01 7.8239748324307818e+00 4.6187945109555606e+01  8.1227279260492111e+01 1.4262950125145464e+01 4.4501373315712073e+01  7.4850530448812847e+01 2.8874730120330145e+01 7.3508101629206365e+01  8.2778487685515074e+01 1.9225639597187065e+01 4.4604844111946484e+01  9.7039376883779042e+01 -9.0873148675718063e-01 2.6616962628911217e+01  7.9872942934713123e+01 -1.9815112063945826e+00 6.0891966700477383e+01  9.1694623274836431e+01 6.8140495313713032e+00 3.2338248793879231e+01  7.7364944937407742e+01 -6.2473267311286582e+00 4.1798944109400850e+01  4.7635191465666487e+01 1.9525781125321647e+01 -2.8892262860437885e+00  5.0844073533810025e+01 1.5558645901066065e+01 -1.1543996858333573e+01  5.6974850829996015e+01 2.1823786163815065e+01 -3.2259044541453217e+00  6.0567048361813860e+01 2.2506958528799171e+01 4.2146519141032925e+01  4.6527435333142535e+01 3.6557707419816154e+01 1.8663919713432229e+01  4.9290309666716688e+01 4.4829692576148489e+01 1.2211224871282784e+01  6.4927913518551065e+01 2.8686387698141271e+01 8.5753529884057542e+00  7.9572271340679322e+01 9.9494802670209861e+00 1.0001937824973940e+02  4.8854933291954964e+01 6.4762768402682083e+00 9.7550940014345841e+01  1.9602777698591762e+01 1.3345946170614788e+01 9.3680777706653885e+01  5.0798926313672652e+01 3.7685343962936391e-01 6.1539568941447769e+01  7.2019918133172723e+01 6.4130278019077123e+00 7.8597044356204208e+01  6.1826271111963081e+01 -3.6402771680973188e+01 5.9292579318021922e+01  5.5037707483170806e+01 -2.4343856666519997e+01 1.0354669407738066e+02  4.2368327955470043e+01 -6.4333755921668363e+00 8.0838163011887957e+01  6.0256663554360550e+01 -5.2801569644133428e+00 5.1081940028637042e+01  6.7834842675409178e+01 -1.7561083243981976e+01 6.3276247582456108e+01  8.2330630194633230e+01 -1.4519721950851233e+01 6.5314366804926124e+01  1.2407734040024054e+02 -1.2253916459537497e+02 -6.6844519110715169e+01  8.4065092257365961e+01 -6.0440570577435402e+01 -4.4056688711890210e+01  1.0363261033159844e+02 -6.8218280781570996e+01 -5.0110561870690240e+01  1.1152651673601731e+02 -8.2323492594108544e+01 -1.5747596523188056e+01  -6.7896927543371124e+00 -1.9137517601166394e+01 4.7253852063649106e+01  -2.7661192336541252e-01 -5.1176472978544876e+00 3.4203027855812245e+01  5.6999020436489118e+00 -9.1180338676961608e+00 2.9516757463172624e+01  1.3536251157763729e+01 -1.1646032230206863e+01 5.6848835776602961e+01  1.1430017551042957e+02 -1.0110858073060473e+02 4.1816346131741952e+01  3.7647966819865886e+01 -3.3224955661629473e+01 6.6471401671710296e+01  8.1035223439468439e+01 -5.1879061696131828e+01 1.4308760290623070e+01  7.3081037386168731e+01 -4.4095971313830987e+01 2.5518098739241076e+01  1.6085052688631421e+01 2.2898023084136319e+01 2.7629382940718440e+01  1.0950643792670026e+02 3.2029074104980900e+01 3.4186554968974640e+01  8.5665234019179081e+01 -9.0136702421485975e+00 4.7979996166857788e+01  5.3139876675808807e+01 5.3952871038566705e+00 1.2393345182880037e+01  -2.1512725977178924e+01 -2.8589097860578541e+01 8.8246549278218978e+01  2.5387561226958923e+01 -2.5712858027130236e+00 4.1444238909932039e+01  1.1441481592825101e+01 -6.9384230469483485e+00 2.0956428096688409e+01  4.0004926673451010e+01 -6.0801053168856747e+00 5.3802684617438189e+01  4.3225522859283636e+01 2.3258163195033705e+00 2.9131518568610888e+00  4.4493866387170549e+01 5.1153224861608306e+00 4.7912950525762334e+01  5.9731295567538282e+01 1.2645750678939705e+00 1.8206812633088724e+01  2.9842474451403213e+01 1.8393632168509648e+00 1.1382419390024186e+01  9.8606631342624468e+01 -4.0443986935622860e+01 8.4249231614464577e+01  1.0609998215527470e+02 -1.9166374461529355e+01 3.8616627205497636e+01  9.7409065683002595e+01 -3.7007855535158775e+01 9.3204671654679345e+01  2.4416511207379088e+01 -2.2619689821042098e+01 8.1929001125386748e+01  -1.7628228996646429e+00 -9.6262736056123881e+00 3.7470457027649942e+01  3.0170102774348649e+01 -1.3904781050551123e+00 4.9117088455660536e+01  1.9469097921554962e+01 3.4360072369718608e-01 2.3012467953224970e+01  4.1214202335211553e+01 -8.4867357628810591e+00 -6.0551805098219994e+01  5.6684547991771392e+00 -6.7153703900170170e+00 -3.3395027592757778e+01  3.8092286743248209e+01 5.9063930630730956e-03 -3.3908847703520763e+01  1.5496253740007521e+01 -8.5363247368146544e-01 -4.1080396895699060e+01  4.5545603634118855e+01 -3.9124847801072471e-01 -1.0220599799888364e+01  5.1584113445229598e+01 2.5408606795186488e+00 -2.2148094792334547e+01  5.4800306050584375e+01 4.4775662755467813e+00 -1.8770532153654958e+01  4.9783454315370662e+01 -1.3589146710660771e+00 -1.8884821976858298e+01  7.1387074592833414e+01 -9.7104054486986939e+00 4.4083242701795321e+01  8.3388549290907093e+01 -2.1327555266686171e+00 5.2427382710195673e+01  7.8061604164006695e+01 -1.4945138733967606e-01 4.1143967677320013e+01  6.7481397466740759e+01 -7.0936981248370312e+00 5.5265102054646782e+01  6.2750624001817940e+01 1.2647252830411890e+00 2.1210787110548448e+01  5.3030543404899667e+01 -6.3812949830036851e+00 2.2580829097804941e+01  4.5706725817195107e+01 2.4166906819354770e+00 1.4332977605282560e+01  7.0754175071568568e+01 4.7205228500503829e+00 2.3692745078061360e+01  8.6948423742177798e+00 -2.6382636459361144e+01 5.6752692061008512e+00  2.0128461993562013e+01 -2.6839540375404336e+01 -1.3220716197335483e+00  1.2672418980728354e+01 -3.3516058682675819e+01 8.7885874300478051e+00  1.0625592983180383e+01 -2.8827945230315855e+01 1.4824867722993011e+00  3.0794999608147791e+01 5.3900992658855067e+01 9.4531269332173594e+01  6.3581342663028799e+01 4.9747151063968253e+00 5.5238511042913771e+01  6.0041294129075013e+01 1.0837132059637447e+01 7.7045445387274000e+01  4.2733128830719913e+01 1.0136204158290450e+01 6.2258859065305572e+01  7.5940462628515021e+01 -8.7584249039928430e+00 5.8876545383929837e+01  1.0690375517386961e+02 5.5030520911377518e+00 2.9467640762836165e+01  9.1366385963170885e+01 -2.6520651408483605e+01 1.8544711565278053e+01  7.2447683473529011e+01 3.9734924122514608e+00 4.8571224196551469e+01  2.8029921334928197e+01 4.2674373658074032e+01 4.1226985147160306e+01  1.0923600545299243e+02 2.2135253096346307e+01 6.6853297444261386e+01  1.2474973417520732e+02 -1.1768959071388021e+01 3.8063256140401080e+01  6.7369101861162008e+01 1.0391823729555073e+01 3.9238251804322807e+01  8.1978367897456181e+01 1.2150956371507755e+01 3.3494201036992237e+01  1.1146316509360311e+02 1.3994298412527794e+01 6.2490353247749333e+01  2.5484840261273696e+01 -1.1013653208208463e+01 1.1846199585483822e+01  6.8466287679394966e+01 -1.1262721202085205e+01 2.5881841720400189e-01  6.2711860076888186e+01 -5.2878149020343734e+00 -7.7505575047570519e-01  5.9512320917647251e+01 -7.1956823501221230e+00 2.9875861444650688e+01  5.6100671107908781e+01 8.6513439651571762e+00 -1.3004717573077588e+01  3.2124862210054125e+01 -1.7925999990280175e-01 1.2507336728062585e+01  4.5082520843047256e+01 1.3352270839446756e+01 -5.3979705334511916e+00  3.5842445840848740e+01 7.4571383053313856e+00 -1.4765506967553453e+01  9.0796959725509097e+01 -6.1165682157212551e+01 -1.1912988027891112e+01  5.8239081396565794e+01 -2.8012596909278653e+01 3.2564385622898975e+00  7.2716162113896473e+01 -5.4384640424308486e+01 1.5869426458323865e+01  6.3331496990149283e+01 -4.1669859056542826e+01 -1.5907651554766908e+01  8.5895951782488950e+01 7.3498988782616950e+00 -1.9867119256172259e+01  1.2659437646851671e+02 1.2645711574270850e+01 4.8143760292526345e+01  1.1561954391059007e+02 1.8380219431627275e+01 2.9283521665863955e+01  9.1133265850457960e+01 7.9290971899687719e+00 2.5266938713693030e+01  4.9926298169042425e+01 2.5577002510492900e+01 4.7754853182965554e+01  7.4647623226019249e+01 2.0710625594411507e+01 4.7422096405888674e+01  6.3107248321749331e+01 4.5761648948304241e+01 4.9281772892903930e+01  5.0110211470127737e+01 2.1239126707570673e+01 4.1808145904759982e+01  7.4982842041249228e+01 9.2618645187784185e+00 4.3055448428843142e+01  7.7269936521126468e+01 1.4995901725161612e+01 3.6159104381268818e+01  8.8621329732660911e+01 1.4617327920761078e+01 4.5020192097618953e+01  7.6578047725166073e+01 1.9581816252876191e+01 6.2768377803244107e+01  7.9534091603361304e+01 -2.0601377999190587e+00 2.5764590020024798e+01  8.2215402845610271e+01 -1.2916980146241810e+01 -1.6523951401806574e+01  5.1654484200524657e+01 -3.1707591027825870e+01 -1.6130740725342875e+01  5.2452920533713851e+01 -2.2937587272860846e+01 -2.1334036584973548e+00  3.5568764702570604e+01 1.2591455029034065e-01 1.3439789828645123e+01  4.6769777446169250e+01 -2.0498138788125246e+01 8.2198555670818347e+00  6.2516544077565669e+01 -1.1142814190507748e+01 1.9119206170222164e+01  5.2685973377222240e+01 1.9489444307488593e+01 -2.5621579279408153e+00  4.1301760320846626e+01 8.1929595111767330e+00 4.7593122438578696e+01  2.6240095228561973e+01 -1.5906560235821403e+00 4.2294001366535433e+01  2.5566267064830654e+01 -3.3819861912303866e+00 5.8256346967841083e+01  3.9969089214668607e+01 -3.4617986731933126e+00 5.4046567726106538e+01  1.0236773896521079e+01 -3.1982193151372826e+01 2.9907776668671406e+01  2.5908012585830459e+01 -3.8769604380938304e+01 4.1693546617410355e+00  7.8745773449203567e+00 -2.6428976935209015e+01 4.7083975819499182e+00  3.8768400169239847e+01 -2.2927160768098670e+01 2.1823890828283702e+01  4.1433625219645442e+01 -2.2124868462187477e+00 2.1684924384813790e+01  7.9682686320474318e+01 -8.6433419414366242e+00 1.8963913346530276e+01  4.7558549784835485e+01 -1.2414166145381850e+01 9.7505951987324557e-01  4.2273099345068509e+01 5.6525657704224201e+00 4.2125861662899986e+01  5.9928449656135577e+01 1.2645071692749264e+01 4.6940044849837399e+01  4.9230636286967751e+01 2.2797531310125073e+01 4.9154429718233487e+01  5.4842994480367700e+01 -9.1624942192583934e+00 4.7072971343507518e+01  1.3453558013938036e+02 1.8759572197749915e+01 5.4657936971549574e+01  1.2354347228198813e+02 -2.5354804909617590e+00 8.5659723969120165e+01  1.0606211675435583e+02 -4.7568954163686845e+00 7.7405713463667524e+01  7.8024857775437297e+01 4.1339252201260551e-01 5.6734479942723276e+01  7.5202342028257277e+01 -5.0770945586053111e+00 5.1535120154135470e+01  6.0614805890907206e+01 2.4511059336195036e+00 4.3460611774109985e+01  7.5047136001184555e+01 -1.2692366380847884e+00 5.5470658759861458e+01  3.0142327566661525e+01 -1.3777398299876153e+00 -7.9860389225062548e+01  6.7456425095630635e+01 -6.9919407872370201e+00 -6.6936422764637371e+01  1.2215357443806772e+01 -1.8593206513910316e+00 -5.9528656066216698e+01  4.1783507016320485e+01 -1.6265592544004654e+00 -7.0980717226873423e+01  3.5805243573961384e+01 2.6035345034887230e+00 -1.2075877403481478e+01  4.4937562465374768e+01 2.9272515458668793e+00 -2.1611277440983542e+01  4.3506302181580459e+01 8.5813013770889981e+00 -1.1773501067746860e+01  7.4484185373935370e+00 1.1495327494242256e+01 4.3041124863532801e+01  3.5877670542189586e+00 9.7037508392151839e+00 1.4268588906272239e+01  3.8604962545233626e+01 -1.0854930143994042e-01 5.1801489759075984e+01  2.8406840740008523e+01 -9.8349365294462192e+00 2.8055679267726461e+01  5.6693328741951547e+01 2.2752006912581265e+01 4.6529823148487395e+01  5.3730309569122348e+01 2.8740940728284713e+01 6.3283396464815787e+01  5.3629023807301081e+01 1.0985297954304778e+01 3.9779655491789143e+01  7.6232229735425634e+01 1.0953396708103872e+01 5.0277349511243116e+01  4.7599333462548095e+01 4.0988661081030200e+00 1.5785521119734476e+00  6.6352012523651155e+01 3.4375985667133783e+01 7.8820937402551735e+01  1.2111099297012262e+02 -6.2843053497923433e+00 3.8045540009349622e+01  2.3605107104296238e+02 4.5572564109143663e+01 5.9400225293652511e+01  8.6676620720116517e+01 2.1254247849488760e+01 8.2871886205910585e+01  8.1838613632356598e+01 1.0291182164996151e+00 6.9661595116480171e+01  7.6259548489483521e+01 9.4460638287566727e+00 5.3615335925867576e+01  8.7561084248921034e+01 2.9538140214086450e+00 6.9462252405573707e+01  6.8725912020654647e+01 -5.7870808968006395e+00 6.9422564607649790e+01  1.1713536455443763e+02 3.5195046581457589e+01 2.0301303620726903e+00  2.7141343147607540e+02 6.7857895469652632e+01 5.9432004555592606e+00  1.5561798786228647e+02 7.2988977550239085e+01 -3.0313481016944351e+01  1.2883394473736050e+02 3.3514320636077237e+01 2.1730807300162745e+01  5.4662508345134555e+01 -9.9503150485562095e+00 2.6480060940509588e+01  5.7122022126141665e+01 -1.2598882031608381e+01 1.0107502855725256e+01  5.1897496959937833e+01 3.4273319483181024e+00 1.8435692556950755e+01  5.2902599015513033e+01 -8.4165590723163497e+00 1.9987024747660858e+01  1.6620960555996888e+02 2.8781239872867587e+01 1.4973018138481038e+01  1.2043357768446644e+02 -1.2693230391872701e+01 -8.9510576791909617e+00  1.1467879449122600e+02 3.4073627943065503e+01 3.5798408102988127e+01  1.1366297363206141e+02 2.2420491969867332e+01 4.3736800550005754e+01  3.2091989751721869e+01 4.3953751281103113e+00 7.3083680898774986e+01  7.3921353831455860e+01 -6.6504899149015326e+00 6.7991639871693081e+01  4.2481727704885415e+01 1.3622890760327039e+01 7.7758274722231164e+01  5.5108080410004305e+01 3.8913445742448993e+00 4.7739525211018226e+01  9.8900582897350586e-01 -1.4682353288993387e+01 1.0247598326363499e+02  5.8186422454658725e+01 -5.0263640517953107e+01 -1.2052822584121363e+00  6.1004532242547889e+01 -5.0037001853589153e+01 3.5513405983783954e+01  4.5192336368708730e+01 -2.3786687465521396e+01 1.7685899725577514e+01  6.0431076805583025e+01 1.9211995963686117e+00 4.2663659037310097e+01  8.7350340990986169e+01 -2.2259592433525928e+00 2.5617312521329143e+01  8.0141671495627577e+01 8.8657402591523908e+00 5.8120844590451242e+01  7.9896626968419298e+01 -2.3211412498068682e+01 -4.8207415496450267e+01  4.9314239252268969e+01 -2.0773955130073958e+01 -2.6230524828909576e+01  7.1868888720964208e+01 -3.0170873531522460e+01 -6.9794899503025409e-01  4.8871773250828888e+01 -2.7185259288538177e+01 -2.1122307187251209e+01  4.3392011870247373e+01 -4.9954709466570897e+00 5.0936198453185447e+01  -1.0344320142613128e+01 6.6401304156547969e+00 3.3744663707230110e+01  3.0923720786974602e+01 -1.3097730824105300e+01 1.7099739401853302e+01  9.3549336681852338e+01 7.1237978892393045e+01 3.3576867919610471e+01  6.6733970653203500e+01 3.3695874191192189e+01 1.4543241918506391e+01  6.8860954282601028e+01 1.0612678858923476e+02 6.2407534053395693e+01  6.6233521127135845e+01 5.3797624357916007e+01 -1.2417505141122243e+00  9.1258231226396532e+01 2.4301082434421641e+01 1.0688930631381409e+01  8.6347350787600675e+01 5.5582109203889747e+00 1.2635237407021545e+01  1.2150790972003404e+02 1.5246915798645006e+01 1.9019175449416014e+01  3.9159881695975947e+01 -2.5412120943402021e+00 5.9595305991919489e+01  6.5060533627968269e+01 -1.4723901331753696e+01 -1.4141080873214472e+01  1.0570637127292684e+02 -3.3287350674583536e+01 -6.2280551009559531e+01  8.0045347199755881e+01 -3.4520632797603099e+01 -4.6646223700173969e+01  9.4733291107154045e+01 -4.6771817380440339e+01 -1.4576002462413829e+01  3.1085668860147877e+01 -3.2984522710304610e+01 -3.0754429017059188e+01  4.3959460837811747e+01 -2.4402084049259599e+01 -3.4448853764819653e+01  3.5420372987515847e+01 -3.5105657858047564e+01 -1.7302382526428823e+00  5.6578389318089982e+01 -1.9910056147271302e+01 -4.6320966633120753e+00  6.3479897930093770e+01 -8.7117698282765534e+00 3.3217567474455571e+01  6.1920392203580789e+01 -2.2545610205088508e+01 -8.1289346278580172e+00  9.7304008895791796e+01 -1.1142012933348537e+00 3.2693111007820022e+01  4.3800236971000196e+01 5.1903999827468885e+00 5.8342144695382601e+01  6.3298643461282317e+01 2.4861227059406581e+01 8.9879410029130781e+01  4.8616712195521799e+01 1.8459218874483625e+01 5.8079916610114374e+01  4.7484436813603601e+01 8.5597439969434896e-01 5.1323605814839908e+01  5.6365456305360468e+01 -8.8781089207227701e+00 5.6117269685361826e+01  3.8436055905800259e+01 -1.2529065470349723e+00 5.6490623650477424e+01  5.5114307628072304e+01 -6.8070620717615360e-01 5.3732944420489595e+01  8.6863951131932154e+01 8.8819197749737508e+00 5.6161613773748755e+01  6.7079403444531579e+01 -3.0894843529664432e-02 2.8112855376909508e+01  9.0741236243216676e+01 7.3210123896166728e+00 2.3903744008755769e+01  6.8902047888281203e+01 1.6498161513599378e+01 5.4635381727859894e+01  5.7353013051163273e+01 5.0827451172216875e+01 4.9935192355891957e+01  3.8560550901780921e+01 2.8514855700799497e+01 3.8714490662067099e+01  1.1686958133948822e+01 4.5437855213060409e+01 1.8709555191611535e+01  2.6249845946430980e+01 3.6466723083029947e+01 5.0131488566728898e+01  7.1665616427904283e+01 5.9256997160419056e+00 -2.8668052523950497e+01  5.0911823214183109e+01 -2.1501617060296012e+00 -4.5867004758120864e+01  5.5127643166344797e+01 -2.3407556744358029e+00 -2.9480190086788742e+01  7.5960276532724649e+01 -1.1531725697016022e+00 5.5011964612077094e+01  7.9211206002663417e+01 3.7802082922922824e+00 6.0960139641384743e+01  7.3107561746668154e+01 -5.3182044099621546e+00 5.2373654271513665e+01  5.3860395670962923e+01 -2.0910877373464011e+01 1.6113568223882790e+01  6.0785877627465943e+01 -1.3062279543645641e+01 6.5049779535310401e+00  4.6977195094379603e+01 -3.0153617032407762e+01 1.0986619428049305e+01  6.8017883518616003e+01 -1.8160306931905886e+01 4.0012372733882870e+01  3.7636797552159145e+01 1.0951939712570704e+01 2.6332365557520639e+01  5.3010403999532144e+01 -1.2457078609986148e+01 5.3192210647905497e+01  4.7743750141220517e+01 -1.2383753033078468e+01 2.3673074721185987e+01  2.7429680698809200e+01 -5.1373219765384221e+01 -6.6405469858882782e+00  3.3074215581838772e+01 -4.1169333209455438e+01 -4.9068172917600510e+00  1.9125490820217703e+01 -5.0674467058664206e+01 -1.0423240028312408e+00  3.2753867454725956e+01 -5.5527156175452880e+01 -9.6672871365164088e+00  8.7337993390697278e+01 -1.2315404086432791e+00 4.4194137600873162e+01  7.1267784725697297e+01 7.7185261455916603e+00 2.9571184695430539e+01  7.5094038633629353e+01 -2.2630135474641087e+00 4.0600430926600211e+01  8.2332871247642558e+01 6.6409751297057342e+00 4.2944696441807579e+01  4.7097827506054095e+01 -2.7523290740954732e+01 1.3728342509117851e+01  7.1484720648917431e+01 9.1901533932910393e+00 6.8750778718040706e+01  6.2584998040093978e+01 2.2136332288729285e+01 6.4401520769767629e+01  4.2149544659032919e+01 3.4254621812670486e+01 6.3217048396294597e+00  4.3349643736007650e+01 4.5801099829554175e+01 3.2889173902006594e+00  4.2742917239446655e+01 4.7021395007661063e+01 -9.3576096501541031e+00  4.1303208881909399e+01 2.4322197362831432e+01 3.2117484796552853e+00  1.4006650782161790e+02 -1.2039108043037264e+02 -3.8363507942496398e+00  1.7102119835664902e+02 -1.0692891062114505e+02 2.2465238557528682e+01  2.0383764837756712e+02 -9.3369792819371582e+01 -3.6474182346109373e+01  1.4308764043199932e+02 -8.4880351770211206e+01 -2.7809815275765022e+01  1.1188103524933203e+02 2.9607858149774970e+00 6.1024890738786723e+00  3.2081122051046414e+01 -1.6875240287317310e+00 -5.1974492269586939e+01  6.2874907943100162e+01 2.3097455230699477e+00 6.5935962764807698e+01  1.3867164182073108e+02 2.0538350805359979e+01 6.0090919471834290e+01  7.6395181324528210e+01 2.7031916643476928e+00 4.8722616388410628e+01  4.1579091245164335e+01 -1.5819505438789786e+01 -6.2210322802630991e+01  5.6302259394113271e+01 -5.6319810689033813e+00 -1.9913549574850180e+01  7.5214452345596754e+01 -1.0489979615502509e+01 -9.7536850781162485e+00  4.7997042843701983e+01 -3.3668168831518769e-01 -7.1753353973743614e+01  8.0287764504633330e+01 -1.2355044637637125e+01 -8.1762135707888476e+01  -6.9929124835936260e+00 -1.6951901210590560e+01 1.4282570138862113e+01  4.4988185482740151e-01 -3.8880850788712924e+00 1.8607576540890605e+00  9.