<?xml version="1.0"?>
<VTKFile type="UnstructuredGrid"  version="0.1"  >
<UnstructuredGrid>
<Piece  NumberOfPoints="1183" NumberOfCells="4227">
<Points>
<DataArray  type="Float64"  NumberOfComponents="3"  format="ascii">31.31392399354751 5.370051060948815 13.92144484527223  30.14500777071176 5.385095346664645 16.52108386735743  31.30551338810937 3.497919517932927 16.17317850628635  32.32424647429752 5.891158506403991 15.71173902672302  30.643978 8.828338 20.149931  30.472158 10.018025 20.730074  30.704874 9.242824000000001 21.886198  32.1330532103625 9.548575560361337 21.02793721603661  24.42555728364329 7.924703931399338 20.9257239943911  25.52604220587801 8.041521693139075 22.01261080030337  24.75390989630648 6.069662195717622 21.96427130743814  26.0138314225413 7.080206696594637 20.79799768503218  26.986074 13.149429 21.665844  26.35944 13.863859 22.831881  26.187952 12.511276 22.62958  27.72282295728263 12.3001348960359 22.37511095145554  27.42787458594599 12.5012973342424 24.50789605041086  28.24990739688597 10.40832041791297 24.72436048635451  26.2638105435198 10.79209650416438 25.12190848700783  27.77795984418952 11.22790855108825 23.21424493926048  21.81671 11.211244 14.824056  22.936161 12.164712 14.380956  23.181126 10.926866 15.076006  23.17435826175766 11.06619040507711 13.39639557629791  23.08029919302011 8.851834776029254 14.48241704233135  21.62580670348767 10.11792219249332 13.54447171308322  30.52501634551106 9.300981218256927 18.19156910364351  28.886112 10.600979 19.106813  30.27834014244917 10.923794256542 17.5321441608837  28.75354646183022 9.593903365274535 17.02333060000726  27.823887 7.225966 16.799591  26.509388 6.733491 16.880165  27.688261 6.047368 17.039831  27.69665119613392 7.006973644800686 18.23865862353044  23.998638 9.64545 24.83898  24.738129 10.734863 24.825304  24.74467445715664 9.675223422501722 26.56274101707806  26.23948654019549 8.770432639894592 24.95252664737948  20.449337 11.165722 14.040042  20.684761 11.143955 12.476002  21.442913 12.527428 14.07056  24.91920416848686 10.81313430405584 11.59479699534994  26.063704 10.322753 9.501659  25.28210283526597 8.871352822646489 10.62860355186257  24.20034123096929 11.08050780969391 10.25791138268063  20.14632 1.417538 16.398058  21.563847 1.274047 16.475145  21.10154800269757 3.304820249120732 15.71656266714377  21.36802341077921 2.761692078790119 17.34451091965136  25.227747 4.373749 30.480396  26.195877 3.292058 30.181664  25.513439 3.519166 29.245939  26.70266461500627 3.822640313376106 29.01260817230949  33.32228150208384 8.857902833208124 16.94437947391137  33.12809158699898 10.61267319290463 19.2508073444275  33.93600494179065 7.980855802996144 19.82655945431772  35.14350187958795 10.1237867007591 19.0859482054303  28.400078 16.684351 24.910408  29.525892 16.122728 24.798874  28.717213 14.986911 25.424215  27.47521865293133 16.09305259931137 24.07353198775731  29.4396 9.550471 13.215157  28.907068 10.505606 13.179383  28.0062724750763 9.436803802493726 13.05054022112304  28.68831230475 9.607189079791368 14.38665337715866  36.327717 10.102358 20.19528  37.253044 9.052194999999999 19.219507  35.89476415285398 8.232259854650176 19.09614560694681  33.882523 6.135503 27.234423  34.443916 5.539751 26.378656  33.299595 5.33041 27.511793  32.67057194640444 5.419097434931327 26.23078494076189  29.803442 12.037508 25.164845  30.6323195275721 10.94128111002582 23.28620648823264  29.48072958350656 11.82724239534056 23.88931516747176  31.329355 11.913311 24.721186  35.648342 12.122204 18.201172  36.14079256621203 9.900268293919675 17.79703404302705  35.773781 11.441383 19.265192  22.170292 13.040499 7.289567  22.971844 13.954695 8.181945000000001  20.68172796892375 14.46033727858538 8.629234506524112  22.05110365491535 13.56090306307788 9.30285759357152  27.31666724112722 9.103187521217436 18.3611459043992  29.151602591431 7.841878047286384 17.29569422957857  24.28077168563594 2.564697732426421 22.96016400750684  25.859442 4.479366 22.256742  25.3784364547228 1.973702945363697 21.59051210458852  24.94205639185635 4.317296471411528 21.24113309824257  29.10937712766804 10.12690423385931 26.37118206102314  30.836985 11.14521 25.731064  30.38413690383628 8.918816306435254 25.44254748566116  29.53998966672044 10.26677243669752 24.36835551093299  22.433735 2.192615 15.670708  22.53464238030225 4.028910368198624 17.72750398751279  23.925081 2.944424 16.912939  23.099922 3.774462 15.474267  21.67882915363332 3.4409097273366 19.54719762209974  22.03663154072899 2.04944053016664 18.45710314244266  22.40279677083951 7.085333707839973 17.8523181460271  21.14790622373773 5.658094308426587 18.87020719565848  20.76425835847693 5.317885679614571 16.04477776296784  22.78470960790574 5.377866607485695 16.56812650784422  16.623423 3.631472 22.70237  17.20343090556982 6.407464695605575 22.27978332819347  18.48483188977565 5.349353193599256 23.27481759010965  18.71144066776469 4.756541712725502 21.77647874713872  18.304379 7.962238 13.956465  17.838755 6.605564 14.664795  19.62530623345626 7.435380316768669 14.80661979659608  18.21428771206384 8.13078727408794 15.43346410295956  19.224672 8.143941999999999 20.556801  16.89384709088943 7.73538198070745 20.49054707198344  19.40082598838438 6.690981286718174 19.99691113326132  18.43081819605657 6.373757959223653 21.42704897359218  24.815601 15.018764 30.11487  25.222019 15.646739 28.94343  23.57370419042402 14.32847036048409 28.37543475546417  22.97997902295267 15.68175976368546 29.63832147830586  35.387215 1.690005 20.197649  34.721458 2.78978 20.607763  34.16024323081374 3.142668806262301 19.03803930494172  33.69816411114873 1.887611425642358 19.76799761039265  32.22472 1.584453 30.742558  32.69384 2.509623 29.573154  32.814739 1.100253 29.576033  31.44308545636861 1.158024130023976 29.8816849190068  33.285652 -0.01335700000000001 15.307424  33.13671711827426 1.757974100449609 15.981062958538  33.924545 1.289379 13.892946  32.18005861029752 1.225585561533016 14.98153278120363  25.312609 3.999865 17.068291  26.733423 4.885454 16.968513  26.34337086016807 5.359257242343681 18.45848687468995  26.65094556251888 3.038867329475486 18.15236328428396  20.118837 7.086507 12.401903  21.3338646021924 6.425149307700539 13.73688047451719  21.94308910419287 7.208987701849465 12.17960903327517  20.85632101822024 8.265486571858334 13.64869845461472  21.332857 15.645403 27.832462  20.54472 15.038239 28.98192  21.216002 14.270632 27.410847  21.532972 13.781041 29.712822  28.445316 13.506498 26.05603  29.426723 13.439396 25.0786  27.01254229810809 14.55013354220105 24.78450382859105  36.734386 0.664435 17.000975  36.166256 0.763164 16.1175  35.542912 -0.01335700000000001 16.647608  36.21412762465548 1.336119059012096 17.22281733842196  30.360321 8.626984999999999 23.200813  32.07169231167106 7.749466589478192 23.97724717195783  32.22989017540971 10.05933621743181 24.37373920041361  29.579206 11.426975 26.041124  32.100296 6.076256 23.667233  30.667542 7.296461 23.994192  31.053387 5.731659 24.866144  19.821999 13.926612 4.606795  19.50694599619843 15.10775900470122 5.702345065056686  19.579639 12.963383 5.481237  20.75507231650841 14.04796343007658 6.077600639439207  17.83635267881768 7.1439021376017 18.75222211017999  18.31645800001824 5.463959489889867 20.128787774387  22.113438 10.487752 25.626837  22.98107833294263 9.491751775891251 26.65507945300109  23.297878037975 11.11476722948757 27.1245132351711  21.54312408854472 10.46297844246535 26.8116438287324  23.178837 9.108328 16.970816  24.302628 9.261188000000001 17.410379  24.23863799354614 7.357542248176745 16.89889007848264  24.34786202410493 8.592690553801589 15.8420870975027  32.87566194398603 6.440241916117235 17.98843294743188  35.43615977314406 7.297413907556042 17.12256579439988  34.90697329047502 6.297776570868377 18.76139701071323  29.028032 11.390832 14.201345  28.003204 12.146575 13.367476  26.87303710820998 10.88413753811409 14.4536299895986  30.812319 12.39261 16.682713  30.433645 11.486131 14.885845  29.53088046176575 10.45430075352786 15.46981302964418  22.66925410380813 6.571680945052351 25.38304938323424  21.464529 8.016249 23.660513  21.05091058977149 5.813082534523343 23.80734087812751  20.77802094812546 7.45512622173529 25.69136743193053  24.757528 9.430399 18.524368  25.537321 10.554787 17.282837  25.86011719439936 8.41186644043953 17.33966662222625  24.4790948189595 3.683268625209525 18.70497809232079  23.22726060069639 1.977871855119085 18.91291391008665  23.316109 0.849531 22.15468  23.51137241322994 2.880101117821482 20.87223383595384  22.836863 13.402243 26.208267  24.79865734372849 13.00310599829392 27.58266174777134  23.956528 11.815459 25.72237  25.079689 9.908545999999999 23.45792  25.626411 11.620834 23.726191  26.72421787657854 9.777313849902106 23.45076437347956  31.82784935179606 8.694924865075818 19.01804632389348  29.203716 8.238950000000001 30.560162  26.074305 8.233489000000001 30.527079  26.663094 9.7049 30.935398  27.74711474016451 7.65424882069424 29.14628555630502  22.899424 12.499574 8.331502  24.066252 13.173302 9.107924000000001  35.951279 6.609458 19.783981  24.47357076770903 4.45396730521469 23.12251026726088  23.10207675311761 13.97065235471449 10.95289502630386  22.3105529992216 11.83880805892438 10.13531144505095  24.6808045589112 12.60641599301379 10.86781945620977  27.32922130176719 6.998683173699101 30.86555557914869  22.591206 6.882457 10.306619  22.725136 6.441765 11.431832  24.037994 7.116853 10.615119  22.86664854984575 8.066102927321321 10.88176070743918  28.20553468038491 2.645943561042436 17.21885597521874  28.02117 3.344675 18.942553  27.86416101807226 4.320903665811782 17.63201349659855  24.073502 5.829741 15.851364  24.03363 6.85431 14.737873  24.977922 6.9707 15.989449  27.32695271805115 3.19529775137247 27.41587184302885  27.398947 5.123847 25.835409  25.85195407982448 4.274521366448915 27.7106880175255  27.37404515212016 5.473219292028904 27.64691502001885  33.90499943903405 11.81719870892101 23.9246
[...]
<PointData  Vectors="u"> 
<DataArray  type="Float64"  Name="u"  NumberOfComponents="3" format="ascii">8.4724954595966054e+01 1.2001900256644715e+01 -1.7676047870117586e+01  9.7398375735762983e+01 5.5669903722907028e+00 -2.9961203570128824e+01  7.1162513740616390e+01 1.3334158800035384e+01 -2.0378863366159106e+01  8.9128871243813762e+01 2.0744679572943252e+01 -2.8911531202353256e+01  4.1145832378187528e+01 -2.6757783385004000e+01 3.8698958329845773e+01  2.3789705562846954e+01 -4.3910327588277802e+01 -2.7255503209779700e+01  4.6325195650937168e+01 -4.1610552735888987e+01 -7.0989526998674947e+01  5.2006216420386998e+01 -1.6580491137982762e+01 -2.5413707273730310e+01  9.4550724327230952e+01 3.2380736494426593e+01 -1.1360268454733731e+01  6.8977883882203088e+01 4.8230887164527836e+01 -9.3466652545712776e+00  6.8558838894346167e+01 2.4205252632243450e+01 -1.5482911754204524e+01  7.0912228296885118e+01 3.5210726237324856e+01 -3.6501125894576560e+01  3.8934444205705937e+01 1.7788588168994593e+01 -4.1086336059250677e+01  3.3611396066106337e+01 8.9570455851086024e+00 -4.4463168347080661e+01  2.4378334142881929e+01 3.4051918876234438e+01 -4.0725918515076998e+01  6.3542889226059700e+01 2.5132997938447101e+01 -3.5002808974722790e+01  5.6743256384421542e+01 1.1878634677299447e+01 -3.5435892190954505e+01  8.8843962063101998e+01 2.0469564436931282e+01 -2.3306098071079656e+01  6.3928972929301061e+01 3.4767507798596625e+01 -2.0642833342138523e+01  8.4121483017436546e+01 3.6296582312955067e+01 -2.0081172199189833e+01  1.0644953846851570e+02 4.7738757377720830e+01 -2.7985241491012946e+01  1.0503635109382314e+02 -2.3898292247509929e+01 1.6552186014894346e+01  1.2426350339160594e+02 1.4129163158068977e+01 2.8303304332885806e+00  9.3404153378222446e+01 -1.2185764131198569e+01 -3.8079859132079883e+00  1.0527504942537229e+02 1.9089147451315942e+01 -2.2501070275479698e+01  9.0104965509513860e+01 1.1529269818300099e+01 -4.8106480504955897e+01  1.1469003865577581e+02 9.0843023457840086e+00 -4.2070322643350453e+00  1.6983658386926737e+02 2.7209827147596684e+01 -2.4849259524381129e+01  1.2707041308405537e+02 1.9869296858399885e+01 -1.8065462924762699e+01  1.2519143063994878e+02 6.3942221265985477e+00 -1.4289231420374747e+01  1.7507645115839563e+02 -1.6858675645782408e+00 -5.0622006085364269e+01  1.5157118689418220e+02 2.0511488088240096e+01 1.8920389818446900e+01  1.8467266561528328e+02 -1.6019341298390891e+01 -6.6233219702320582e+01  1.3785866390022301e+02 1.5743726366860598e+01 -5.3386679953943819e+01  9.5052627869526944e+01 6.7261417555557799e+01 6.9178460256962226e-01  5.9498479066966262e+01 6.1117149659511846e+01 -3.2249755325925385e+01  7.4385744545004258e+01 4.3679857139044991e+01 2.6745368058492671e+00  8.0827509447995695e+01 4.5713188097772559e+01 1.1828328060649969e+00  1.2974889501461811e+02 6.5962364645523678e+01 -1.0797055678667813e+02  1.7184839708468054e+01 -1.3274036297345901e+01 -4.2463813199021828e+01  6.8137182622677898e+01 -6.3622734388119156e+01 2.1464666688986078e+01  8.7116835464308892e+01 -4.3599255773378133e+01 5.0001866643039135e+00  9.7454387430372535e+01 -8.3942755099009503e+01 -2.8705845278375164e+00  1.1372349942327580e+02 -4.5174867865866155e+01 -1.5888607400629160e+01  6.9843075052663707e+01 -5.4278395450149340e+01 7.5436846916399682e+00  2.4445512201620900e+01 -1.4063000040939215e+01 5.8045635512317828e+00  2.8540346950461913e+01 4.0990178500126557e+00 2.3579843087508152e+01  4.3761629052933216e+01 -1.1891377878217783e+01 4.8158444852095501e+00  5.6740320961974405e+01 -1.6235692266294343e+01 1.1003938967014626e+01  1.2784205558611731e+01 -9.6416829711442205e+00 -1.6659780527770405e+01  2.3453229709223447e+01 -2.0192694992005745e+01 5.8739888901355783e+00  5.2039980566399258e+01 -5.0462854298485089e+00 5.3092340332087510e+01  5.2114248070776938e+01 4.4422897140949154e+00 1.3441381134239924e+01  9.0917410772153076e+01 2.6692641414704060e+01 -5.4418016948392570e+01  7.1224030112629748e+01 -2.1631784211714478e+00 -4.9813770193987708e+01  4.6414780439328943e+01 8.0089909383837909e+00 -3.1062885667792720e+01  5.4973425544831059e+01 1.1648436367139338e+01 -6.8939027696824382e+01  6.5686506000345673e+01 1.2874236133434836e+01 -2.9347493620008724e+01  4.2256449818566288e+01 2.2517692365178088e+00 -1.8863220162734670e+01  5.8161244562520231e+01 7.0267749333679497e+00 -3.6462018619183020e+01  5.1214285733299683e+01 1.5991310843633659e+00 -4.1873563848485922e+01  1.3598755550807445e+02 -6.6706563373784149e+01 4.3603091338093883e+01  9.2063747624295132e+01 -8.1036953526228913e+01 5.8894417996611644e+01  1.0861671262519550e+02 -6.3003916253271051e+01 1.9049863706684128e+01  1.3088973884527252e+02 -3.6554395470194606e+01 1.8270208736423136e+01  3.3194138059843844e+01 5.3662142708254859e+00 -6.7554681860241416e+01  1.7571317375644501e+01 3.9158843550166097e+01 -7.2813249236286623e+01  3.5152823650660082e+01 2.0261358049167999e+01 -5.3638564740047173e+01  1.2438833254879033e+02 1.2603853040918122e+02 -3.6042039111502326e+01  9.5969958709398966e+01 1.1594228610343019e+02 -4.6230176378140222e+01  8.0186991116374386e+01 1.1301672706993760e+02 -7.3986114666140395e+01  8.4400670941283678e+01 8.4296877053902293e+01 -5.3857994037040932e+01  9.7664418748862303e+01 -1.9835507305289749e+01 -4.8275696557860684e+01  9.8203865739567121e+01 -1.0421305607547584e+01 -2.8076976903166539e+01  8.9436743525159741e+01 -7.1564964298843039e+00 -3.6315514929429860e+01  1.3971805301036511e+02 -1.8343412919816053e+01 5.6767564752179334e-03  7.3155093046684030e+01 2.1066856548879905e+01 -9.7238795115858508e+01  5.5492637975742909e+01 3.4875339752067667e+01 -8.7489364386681657e+01  5.6998598365799211e+01 9.9845231033741211e+00 -8.8405219781833793e+01  1.4209820350944213e+00 -6.9099327048663582e+01 1.7269291821027377e+01  2.7908674912016810e+01 -5.2265739758006561e+01 4.4105731935201376e+01  8.0715321310923414e+01 -4.8944825143575677e+01 2.0741980127050713e+01  5.1426238111296506e+01 -5.3099227800029993e+01 2.1701753399606176e+01  1.1311367643765948e+02 2.7775250837230008e+01 -3.4474431100319968e+01  1.3102178833993841e+02 -1.1660825439070144e+00 -3.7709649938240915e+01  4.2839216576001647e+01 -1.4584844766151493e+01 -1.7790798028789645e+01  1.8008455684001685e+01 4.0290137339761385e+00 -3.3739278426792389e+01  4.2063224808066174e+01 -9.8451926063742476e+00 -3.4227922422034922e+01  5.9471444082228103e+01 -1.6202986010572315e-01 -2.8187744515578796e+01  9.0238984540122132e+01 1.0589948767166593e+00 -3.5268239133022824e+01  1.4621112386288937e+02 -3.3494197668356938e+00 -3.6058533638209745e+01  1.1344279001685589e+02 1.7897296228045199e+01 -3.5591861102811869e+01  1.0954484927606623e+02 5.9289258214987521e+00 -3.4588756012730371e+01  2.2454541546764332e+01 1.2814455291518726e+01 3.6094157676402382e+01  8.3027458791072959e+01 -1.0756671934544535e+01 1.0764508512248041e+01  1.1558749587212354e+02 -8.2519480982021598e+00 6.0093410647311742e+01  3.3131385827802056e+01 1.3370095009552006e+01 4.2257747723894845e+01  8.8691729018040078e+01 -3.3478844047077011e+01 -2.5745931877104695e+00  7.1593026791523002e+01 -2.1211905181856178e+01 1.6027574435166571e+01  1.1680322753084408e+02 1.1084413686477208e+00 -2.0177576372261425e+00  1.0709503792379169e+02 -2.3326680347651038e+01 -1.2016295049898837e+01  7.9128474825998524e+01 -1.9060900800299873e+01 -1.4643743794661942e+01  7.9594447892420547e+01 7.0218315005542244e+00 1.5437607052983523e+01  1.8863076461072785e+02 2.7060546349466538e+01 -8.9573381431388640e+01  1.1456850159914411e+02 -1.8021380861556299e+01 -4.8837861456296061e+01  1.4587034661202955e+02 8.6684745864816541e+00 -3.4599673537368119e+01  1.3765893422395874e+02 -1.3792128003307266e+01 -6.3759857770715513e+01  1.3829177871442943e+02 -5.2279377108220075e+01 -1.0871621318980850e+02  1.3959992859185243e+02 -8.5566993004228564e+01 -9.4837139105644539e+01  1.1704583650004564e+02 -2.7730576450278356e+01 -5.7476844244247886e+01  1.6784918616831729e+02 -5.3737992073035961e+01 -5.8185532168811243e+01  1.4423606380630679e+02 -8.2296275472922702e+01 -5.2968633521047572e+01  8.4130053751163686e+01 -4.2911223233460774e+01 -2.3763887215455991e+01  1.3671746931288951e+02 -3.9468602129507360e+01 -2.6641228998686735e+01  1.3574201043176672e+02 -3.4695494159631451e+01 -4.3875734374080686e+01  -1.1048899133037600e+00 1.9860856250239941e+01 2.2839198213454943e+00  4.7808978507730524e+00 -5.0234203446277803e+00 -5.2669377880537835e+00  3.9703225883657744e+01 -1.7309938439353356e+00 -4.9118033355980337e+00  5.4392343925464765e+01 3.5365153698197762e+00 2.6322344479504480e+01  8.5275694468625254e+00 4.6422847125672861e+00 -5.6203093143940475e+00  1.0020932012394237e+01 7.7479728424928567e+00 -6.0819119662992041e+00  2.5281591065113020e+01 1.3894927525635646e+01 -8.2609176854209760e+00  1.9845629441019497e+01 6.3634660540307397e+00 3.1766830832687378e+00  4.2381023260383079e+00 5.0736175916342976e+00 -6.8364511201475144e+00  3.7145545107408400e+00 2.0405803938372404e+01 -2.1001808923161985e+01  3.4487746043335408e+00 9.0897612593319650e+00 -7.7402293860272042e+00  1.2397571590012964e+01 5.8719292803218099e+00 -4.5213948691347907e+00  2.6684992816171711e+01 8.3768432631085314e+00 2.8675029284278768e+00  4.4918359589012283e+01 1.8478662213096005e+01 -1.0199041456143000e+01  1.1403319636192123e+01 2.5187689484348390e+01 -1.3610540937173592e+01  4.5888459212565991e+01 1.0952975535588616e+01 -1.5015948401007149e+01  1.6137220138083254e+02 -2.5237206759414029e+01 3.3686056980116108e+00  1.8728391142350929e+02 -3.8487686632801577e+01 -4.9273437432534116e+01  1.1707596665682098e+02 3.0006533321510833e+00 -3.9902881312689161e+01  1.2191839163427248e+02 -1.1622639804983745e+01 -6.5892294913255910e+01  7.6448787675643317e+01 1.3375047960138973e+01 -7.1840345237715653e+01  6.9416232510457164e+01 1.4818939290717921e+01 -3.6815299699196181e+01  6.4436862146391817e+01 2.8189610103789381e+01 -6.2000559546001242e+01  9.7133058069457476e+01 1.8295566766227507e+00 -6.1122528816664712e+01  9.7129684359280034e+01 -6.6116184007860127e+01 -3.7558736894815979e+01  2.0604851812487001e+02 -1.2560364419757602e+02 -2.2028422330835237e+01  4.9399394185906633e+00 -1.3186561805341194e+01 -2.2037096987380842e+01  1.4717760219131902e+01 -2.3018160297154513e+01 1.0131983804418160e+01  4.4379228421588564e+01 -5.7132703832702775e-02 -5.2134799736173804e+01  6.3456410858152509e+01 -5.4296625181796836e+00 -4.6851604964163222e+01  4.8324773641355883e+01 3.9091662650830661e-01 -4.0763621943033606e+01  -6.9870613002713826e+00 5.5845627887074132e+00 7.7341413276756725e+00  2.7658872144176425e+00 1.8429975645387675e+01 -2.9380355457197860e-01  2.3257872241757848e+01 7.7104657561748207e+00 -7.8529470541866830e+00  -7.2589767588425969e-01 1.4657124746528446e+01 -1.3707702469955272e+01  1.0371859365194436e+02 -1.2761293661669459e+01 -7.2727016131359576e+01  8.3021570508597193e+01 1.7997952839085826e+01 -4.2987071478508369e+01  1.2063024195538081e+02 1.7506023365114508e+01 3.1002774222430203e+00  9.0383012802502904e+01 -2.5028090507894486e+01 -5.5090611550387102e+01  5.5723426066550381e+01 1.3664088671543496e+01 -9.2094567521245949e+01  9.7503181769102184e+01 3.6194776600426644e+00 -7.9468335506087769e+01  8.5174474440939292e+01 5.0312601023134356e+01 -8.2803385456687607e+01  1.3711272209138502e+02 -1.2082941262884739e+02 -1.4355786128977081e+02  1.4068693193126856e+02 -6.4254482820572122e+01 -1.6108704742897594e+01  1.4027960109780182e+02 -1.1627967658430595e+02 -6.4617219840123155e+01  6.7059518245427427e+01 -6.6590306317106524e+01 -3.4678942545263808e+01  1.2791961118768548e+02 -5.5225972889648375e+01 -9.5437141055126702e+00  1.2113203411859352e+02 -5.0366045847427188e+01 -4.8168709032971940e+01  6.0116025657510441e+01 7.0368662656608123e+01 3.6670564738675097e+01  7.8415324304206933e+01 6.1551912355619287e+01 1.3002337560975224e+01  5.7709798273410968e+01 4.0551156011390653e+01 6.5294586147174023e+00  3.9084372530484472e+01 6.9751696687493762e+01 2.4608976403382762e+01  1.4845300794329538e+02 1.5998545575011223e+01 -7.6835611343111463e+00  1.3408250537300626e+02 6.5200815610020840e+01 8.4528438363220868e+00  1.0885393780484790e+02 2.9590496995892863e+01 1.2177207639760134e+01  1.1124320546209719e+02 4.4437075248530711e+01 8.4569707654055915e+00  6.4823582987439437e+01 1.3137312896808954e+01 -1.8351433388194110e+01  6.0324685478822794e+01 3.2230562838323209e+01 -7.5871733280866252e+01  3.9096638760153986e+01 2.4000139061998865e+01 -3.7080916438177624e+01  1.4696380360209824e+02 -5.8203733008079077e+01 8.0417330485854620e+01  6.8883500861109994e+01 -5.7392627127383470e+01 5.5590521539326829e+01  1.0445767617256701e+02 -2.3633725158397272e+01 2.9311102692273217e+01  1.6249056529862423e+02 6.4648098631654918e+01 -8.2156139635766436e+01  2.5557250009916726e+02 8.0288922377789575e+01 -3.6920565394427022e+01  1.6586205334902633e+02 -1.0063866618059452e+01 1.4266420002690653e+01  1.1315335897102291e+02 3.2851981777232524e+01 -1.6317457483347304e+00  1.1843870936214023e+02 5.7683066223527703e+01 -1.2247951774526740e+01  1.4701369653847490e+02 6.3111479389474150e+00 -1.6766059702662382e+01  1.5899065298025323e+02 7.6771374751199801e+01 1.0752753418809263e+01  1.1012672434940147e+02 6.8952583770467598e+01 -9.8008669202565972e+00  7.4291915270725283e+01 6.6832820606594751e+01 2.3500094937570598e+01  1.2367258952690118e+02 3.9676652639514735e+01 3.1497230258958675e-02  9.8932977473277589e+01 -1.0744740087920066e+01 -1.1027065292371178e+01  8.0601601690252252e+01 -2.0874291566701668e+01 7.6325921254431011e+00  1.9932055635678129e+01 -2.3849891877330386e+01 -1.4722506668488297e+01  6.0935511295819779e+01 -2.2958976179207131e+01 -9.7140151985436578e+00  4.4045255754265618e+01 2.0097551605164494e+01 -1.7673119053704642e+01  4.3002290814587170e+01 5.0013903203356413e+00 -1.3066104320739390e+01  6.3920659044986145e+01 3.6308468683737892e+01 -2.6462867852924781e+01  7.6083134202387043e+01 8.7712974970990999e+01 -3.7717276503165471e+00  2.9755503614746271e+01 5.1835103395019338e+01 -3.9295853396839718e+01  7.4912046034737259e+01 5.9344197625897529e+01 -8.7983624425491780e-01  7.4487751189361020e+01 -2.5155066482592972e+00 -1.0935393305961631e+01  3.0649657181276961e+01 3.2663454296360641e+01 -3.4776887870563591e+01  2.6645904893744643e+01 5.4068096715220413e+01 3.4734945793265890e+00  2.2361646864846268e+01 6.1974563509937333e+01 1.8321656332842252e+01  5.2844751446577646e+01 3.1177098011692784e+01 -1.3656815456111350e+01  3.7859406101063229e+01 -7.2370328427445713e+01 3.3235152100853938e+01  5.5169185735600323e+01 -6.4375470609908291e+01 3.7251541446011807e+01  3.6128757755675664e+01 2.3063991865740292e+01 -3.3439970035657232e+01  5.4591419031673823e+01 3.0443634309207424e+00 -1.1980991479017913e+01  5.9674023038725039e+01 -4.5302918531733020e+01 1.9729098936154820e+01  5.1857528742759641e+01 -5.4621304670685532e+01 4.5862444970840901e+00  7.0406224980615534e+01 -5.5931260845957944e+01 2.3172297245814043e+01  3.4638456301020476e+01 3.9610579111701220e+01 -2.6594109216332548e+01  1.8928569558195271e+01 -1.1741639468279184e+01 -1.4677810078026303e+02  5.5082248252424840e+01 5.5480081016371805e+01 -7.7525126704424167e+01  1.0580880671261193e+02 3.5962261555485014e+01 -4.1318751742057721e+01  6.3809791310918200e+01 -5.4663203993436325e+00 -5.5562585782616267e+01  1.1771513470290891e+02 -1.0795808433639600e+00 -7.7397587530478233e+01  1.2739088558464664e+02 -5.6681249591573692e+00 -1.0424109592670511e+02  1.3681619721781095e+02 -2.6579063020276097e+00 -8.0332801894147494e+01  7.1796094556663760e+01 3.7913367410583291e+01 5.1502641698453175e+01  5.7537848400524020e+01 6.4339914030949785e+01 6.5183533679865864e+00  9.6490784154406256e+01 4.9906379183312744e+01 5.7612764411329401e+01  6.2105947780217470e+01 1.3840635924828922e+01 1.5377878870572786e+01  9.0606883733939654e+01 4.2718902546862488e+01 3.4125078059779838e+01  7.4540730348323905e+01 1.4506312021982412e+01 1.4915237750214208e+01  7.2637053624113520e+01 2.7982599160515747e+01 2.3440773538787263e+00  1.1219844411198586e+02 8.5464212011454883e+00 8.9957818794289423e+01  7.2680717255591517e+01 2.1048390989318602e+01 5.1680690155575959e+01  8.2791799236984247e+01 -2.3210938343755174e+01 8.9199677299394491e+00  2.1256669196519987e+01 -2.9370415175436513e+01 -3.5893883740022559e+01  4.2732925930024749e+01 -5.4246740279603934e+01 -2.8149913719343783e+01  6.8135370158181345e+01 -1.2275405056105084e+00 -9.3507832089071510e+00  3.7398047742847922e+01 -2.5670030050448151e+01 -4.1718416727545481e+01  4.7907914184137454e+01 3.4193791656029373e+00 -4.2700820207203343e+01  7.3065498522772387e+01 -1.3534089708034220e+01 -6.0606296572610347e+01  6.1529742347645005e+01 -3.0357394176221264e-01 -3.7155188941231849e+01  4.6848349562271530e+01 2.2759319629524071e+00 -1.4100372371420067e+02  1.5727212828247092e+01 -2.6122238519844323e+01 6.8081263761989987e+01  4.8617254340627788e+01 -2.8684299845204318e+01 1.9431195249315316e+01  4.9389519930545063e+01 -4.7762722433841169e+01 2.0114707392017074e+01  9.7038607036768283e+01 7.7461906133301198e+01 -7.9755744924518357e+00  7.3849968360143762e+01 9.4034315987113715e+01 1.9581314655466642e+01  1.0374110943330284e+02 6.8114137128827394e+01 9.5991632957393414e+00  5.1947247453079868e+01 -9.9753517567084714e+01 -3.7425884450886244e+01  3.5711231677466579e+01 -6.3557342626198000e+01 -3.6705972894292174e+01  4.2558016399436660e+01 -5.8876389462309987e+01 -2.1442933345636810e+01  5.5080396922184384e+01 -7.3894777868080055e+01 -4.8502575642992426e+01  9.8904706207255160e+01 -3.6999621007393074e+01 -3.2979556865203392e+01  8.7480410391392709e+01 -1.9588331843726071e+01 -1.0816068604943650e+01  1.0371142836303892e+02 4.8620804660327721e+00 -6.9412444740913708e+00  1.3770958931805168e+02 -4.3214646183413805e+00 2.6518734148446935e+01  8.9401649636273802e+01 2.5321227853113664e+00 3.1268526130953433e+01  1.0352354044692295e+02 6.3461073051962682e+00 -2.0455776399110459e+01  4.1541126266539528e+01 -1.9925555048642494e+01 2.8843284659326308e+01  1.0812524649483083e+02 3.7747384769655881e+01 -5.8694391168852697e+01  7.6466201621303625e+01 4.4240058586977618e+01 -6.4063026165092325e+01  1.0844582766441552e+02 2.7006104430632103e+01 -1.1478448531254077e+01  1.1819805973766580e+02 5.8150909276719446e+01 -1.8378666894326038e+01  8.0688593496906080e+01 4.7954151186975530e+01 -2.4872247397490650e+01  1.0965087639515639e+02 1.9676602429332544e+01 -1.1473428398094318e+02  6.8463713758150533e+01 1.5194019798804014e+01 -9.8100598294836274e+01  2.1308497411683206e+01 -6.9586775335387614e+00 -6.5188695431173116e+01  7.2245295435357576e+01 -4.9449494121904998e+01 -1.3629233212891625e+01  1.1695012401008189e+02 1.1706923327929202e+01 2.8291912130252310e+01  3.2306765969205792e+01 1.6290140814047273e+01 3.3827259567761494e+01  1.0939390260032269e+02 3.2478481712946490e+01 2.9621306785017108e+01  6.3602964689360689e+01 1.5272360794948762e+01 -1.1886288740411477e+00  1.6078371976771871e+02 -1.3558444786078670e+01 -3.0649407891537251e+01  1.3985891396529391e+02 -1.5828791435259582e+01 -5.4435874926477062e+01  1.4694629684387590e+02 -2.1519757003637981e+01 -3.1244240618727982e+01  1.6086426517891468e+02 1.1118774576767118e+01 -9.7062639533431678e+01  1.3942653439120039e+02 -4.7454503755444621e-01 -5.6563793639729667e+01  8.4630641521903513e+01 5.2096278159232362e+01 -4.5235438989726376e+01  9.4704380144508065e+01 2.4908018803632455e+01 -3.4060769120705736e+01  7.3080177339024218e+01 3.3334424216299304e+01 -2.8327423070882638e+01  9.3007236494391876e+01 3.1864688289645684e+01 -5.1962667514260723e+01  8.0655981755905103e+01 -4.0413656157287427e+01 -5.5775116271314026e+01  1.2024362584337288e+02 -3.9076652316037119e+01 -9.7895371482194605e+01  3.6609441401287420e+01 1.7825955548342005e+01 -2.8200717765135163e+01  2.2999402929190190e+01 4.0428772205441810e+01 -4.4063226743107364e+01  3.5074055775660419e+01 2.7398119394473706e+01 -8.4999155608810479e+00  5.7769683266981325e+01 4.6664191379793550e+01 -3.95