<?xml version="1.0"?>
<VTKFile type="UnstructuredGrid"  version="0.1"  >
<UnstructuredGrid>
<Piece  NumberOfPoints="1161" NumberOfCells="4106">
<Points>
<DataArray  type="Float64"  NumberOfComponents="3"  format="ascii">26.526857 6.359998 10.705928  27.92044328216533 4.953104858799419 8.517145593644903  27.06835159020299 7.082596566346115 8.945796850512522  29.65465881192182 5.923425944602356 9.405615933301883  34.925972 14.823627 8.919129999999999  34.16116 15.699978 7.646983  36.78437218094574 16.80920092228991 8.668988283442175  36.96738427178317 15.67141315784969 7.44600553584724  35.37968632871078 18.75529572769489 10.81447660136447  37.253395 18.29011 10.900098  35.14705274517575 17.09666895625377 10.19562289108383  36.20922993703215 18.52646159130537 8.955563760108895  20.76408 7.311708 2.439075  20.896225 8.802512999999999 2.861443  21.037191 7.79706 3.814613  22.29990796458043 8.348893107145134 2.879757774698256  25.323948 7.836603 6.169925  24.01925713352778 6.28123624442375 7.503542182038773  25.3873248984183 6.222060445297412 5.713050343394928  25.61437613994522 6.855351154894088 7.442355451602913  36.57758226395166 9.372131664999268 11.11998831463894  38.59035122513054 7.85110429963694 11.12933208986667  37.27836385543984 8.427196610590263 9.960908367004926  38.62084255912791 9.600852303774248 10.67132321659795  27.69529947446319 2.076366729193048 10.39017764971929  26.58378 4.652401 10.922153  28.81973986294469 4.01638785700794 10.60973648107751  26.78140717381392 3.723401753730434 9.041732706833097  39.95923699999999 23.751343 9.502115  39.95923699999999 22.313261 8.22038  39.286686 22.103052 9.58005  38.57562331150096 24.1077628585069 8.68805286846932  38.082989 21.331476 10.345569  38.342354 22.964693 10.635325  36.94529783108348 22.78958679639232 8.671627194051613  36.373177 9.606377 2.273764  36.262905 9.206118999999999 1.077623  35.32806 9.288929 1.813319  35.60919431792103 10.25793698080031 1.305113405851828  34.19994 24.264839 8.526251  34.82075508880989 25.30697892660874 9.68443242707804  35.76999022009703 24.1207998932295 8.531660846683211  35.07292805065683 25.00892182982742 7.386393722596573  32.699245 20.494833 15.48994  31.580404 21.256811 14.826095  32.88599 21.744513 16.143555  33.6699431425881 21.37991669306913 14.37512726662963  29.000549 3.320605 8.554463999999999  20.175013 6.199462 1.567203  20.284212 5.892829 2.777529  19.562344 4.752868 1.996961  21.54985099458173 4.330333068847397 1.912878772279063  25.703373 4.952629 0.9225640000000001  26.441959 6.438513 0.69259  25.26546893250623 7.294513778663734 1.968650285222336  25.42174618775987 5.598554759123193 2.66027614459052  23.651155 9.615437999999999 0.03180900000000003  25.86310131965605 9.434483510941302 1.537524981993732  24.366489 11.168557 2.01503  24.346287 9.857745 2.713108  32.79985 20.289167 6.367303  34.159519 20.7885 7.540285  33.518349 19.214472 7.269745  34.25404183168612 20.78606122182913 6.064719555135569  35.769733 13.097977 9.571764999999999  35.166054 12.684088 10.900583  37.03686873491507 12.71380608465289 10.98878443763218  36.45228671655607 14.73809763534039 9.802910155854615  23.118298 10.231222 2.898875  22.37149 9.673155 4.378044  33.22531096201951 21.07120949511605 12.04563379495439  31.431259 20.236984 12.190152  30.975815 21.533703 13.16698  31.573133 21.625513 11.708783  33.896721 18.057539 8.062870999999999  35.1364803863777 17.50713905269505 7.49853625377026  20.995047 4.80344 6.456675  20.89485 4.036228 7.906526  22.24102055391836 3.610180706052513 5.730000987917365  23.01087933275009 4.297542140655896 7.955847766906648  32.902386 0.679219 9.962210000000001  32.814579 1.754832 8.940807  31.388966 1.480419 9.714605000000001  32.42768770104702 2.821881151409138 10.03330892264288  35.458485 4.456131 6.89063  34.44368983656084 5.858017559869846 5.900184801609003  35.391319 5.247688 5.876731  33.77193908855467 4.73803032053403 6.74477653826616  33.23620606541256 21.74404125196931 4.44953438516409  33.68323295978014 23.16724941082143 2.498774355638873  34.13979185275024 23.18717423107914 4.317442873814834  34.6681874310862 21.93026978052065 2.835351764198591  35.86335 14.743967 0.03180900000000003  35.027061 13.234049 0.03180900000000003  37.05069 13.351755 0.03180900000000003  35.92211011768444 13.42680037003208 1.125692114702213  37.07745671219089 25.14268489050336 8.107362996607389  36.72073881327252 23.77751661789184 7.444019122386522  20.278311 2.755863 7.734007  20.601351 3.338219 6.567168  22.35651076319918 2.088230699872792 7.432879184004477  21.56194547632735 6.198007474179751 1.574599962678183  27.723421 1.452638 8.784215  27.202991 1.816506 7.697396  27.275824 0.7548550000000001 8.404992999999999  26.22806381435569 1.132649924422045 8.41002428015333  35.95296488285735 18.91229442006089 5.073159226309348  34.57471212672811 16.88261986221835 6.082982073252245  34.852684 12.468493 6.657904  34.233505 13.80504 6.283744  34.975746 14.110637 7.423448  36.02626378290078 13.41540593226919 5.749085437318049  33.832432 9.360626 7.638446  36.10772391971128 9.965968214394035 7.274309337755584  34.651909 10.449728 7.813923  35.60785962167256 8.422232895374291 7.73911509217359  24.00145 5.031047 0.03180900000000003  23.410521 3.518879 0.03180900000000003  24.77733 3.801096 0.03180900000000003  24.30895425531581 4.151600945710541 1.735334345900422  33.808357 17.498457 2.70333  33.5353982077402 17.58152731970218 4.769079321830566  32.58396108641409 16.70781553720084 3.878981093912758  33.67191329457509 15.83759668816388 3.302101311175961  20.218065 11.65398 3.026939  21.775484 11.504457 4.239906  22.118135 12.481122 3.499643  20.26207 12.750249 4.456417  37.96512441230712 18.96127392203792 6.407072222673764  38.041595 17.123211 5.224794  37.98227180431896 18.90555593682664 4.391045697035501  38.719055 18.385902 5.249419  30.861441 8.207053999999999 11.160952  30.719357 7.467805 10.10896  32.006432 6.991808 11.046397  31.06615568585304 6.962969925151841 12.02556469889314  20.563757 10.220699 3.569449  20.850313 8.619751000000001 1.416296  20.936666 9.809708000000001 0.729368  20.550852 9.944241999999999 1.947997  22.55428195699658 9.451799072351081 1.603181255314754  38.815998 9.566703 8.252136  38.61697446485172 8.515737283415563 9.819575183881602  37.55922298128556 10.23343087778711 9.79328483576861  37.69494326502508 9.573856933320572 8.598216312654996  35.46017315323839 10.89391330802153 4.813987667860482  35.280407 11.515438 7.799182  37.32120878729651 11.86917646561535 6.412381995762441  33.178772 21.550097 6.469158  38.091434 8.661052 8.395061  37.246807 8.615817 7.524701  37.273808 7.56474 8.630637  36.30198031438687 9.156034352919852 9.016178784469194  31.426573 22.762415 1.330631  32.376961 23.150793 0.81781  32.68768787344062 24.78942777476198 2.005033206797598  32.09387167564546 22.57404514615938 3.094849308004562  39.045494 10.069818 3.075721  37.869385 9.675609 2.868666  37.5586772180867 11.35823947001052 3.266179856145174  37.7171543739741 10.47243950097341 1.469991047828097  36.28981119225745 7.7961968066774 12.57633063315916  38.35755820632652 9.082597788818591 12.53144431618168  25.58108265156245 5.533481436582005 8.019850914400662  27.56815944471097 6.087876050150091 6.762448504869062  35.062977 18.632616 13.648388  35.638252 19.833145 13.698142  36.081757 18.81348 12.807213  34.18874335893275 19.67146913448504 13.37514374749677  33.6064482280206 4.27623586195804 12.76248642573921  34.060978 3.824092 13.477976  33.70607091859011 4.68261673299255 13.58706836419869  33.18121523522437 3.757482323504535 13.62422828497213  29.731218 10.038726 2.873748  29.42813627519032 8.702846805249871 1.546174039771821  29.838552 10.797934 1.556685  30.7414342144218 9.369241086604079 1.62625137700024  35.317528 2.564067 0.779415  36.384819 2.796992 1.164871  35.443748 3.601854 1.854967  35.49931 2.425316 1.40374  32.08315406674546 6.969014000329196 13.14554317945436  31.19956085438279 5.534925601087664 11.54795183392781  32.99451035645485 6.092050435675348 12.12074732456102  23.748905 14.283957 0.703887  22.60103481907004 12.84477475492169 1.431456537888246  23.718647 13.011046 1.599547  22.748169 14.602684 2.596738  38.95195 10.662038 13.966292  38.292603 9.278586000000001 14.684197  38.149288 11.028185 15.490355  37.46537310487492 10.07142073773421 13.6306757274376  37.846889 10.109624 17.835796  36.85915 12.090572 17.264286  38.49184 10.98822 16.923073  36.59047758572004 11.21305507350777 16.24869916200015  24.332651 7.784599 5.020685  25.798424 8.040647 4.8933  39.090248 13.500648 2.913805  39.366375 13.021732 0.806956  38.71946198707353 12.08984611128799 1.736648956801448  37.81055933137018 14.01839863026157 2.097920574395856  38.01102029335819 12.33102253179327 9.87080429137152  38.00117039930827 13.78629504605068 8.30915984597881  38.66144780338503 12.12626056565089 7.651200753023522  36.97583538284601 12.24395756588019 8.271429691787787  38.49543516815565 15.35723404831595 8.425252259239432  39.95923699999999 14.774792 9.341996999999999  39.95923699999999 16.317478 9.353056  38.66782822712387 16.20755299638004 9.807116087882241  24.093866 11.840395 0.854064  23.038046 11.804169 2.498424  22.2580019037117 11.08407981214682 1.365355546469298  36.357586 23.273771 3.362757  35.128666 23.865057 2.627351  36.012405 23.124298 1.254603  34.9824107118849 22.60487638327822 1.66620347205701  30.758852 9.886315 3.675044  30.69225545755546 8.572624037112154 3.245659822450889  32.00152131538654 9.417270748143251 3.026551462904916  34.016747 22.569672 6.972049  35.67095092766829 21.45492927177892 6.447733729078435  35.08733121462075 23.41449577798856 6.170739333207607  35.88132380696834 22.80300676254319 7.3513442757512  20.881857 2.950533 9.047829999999999  20.574907 1.317208 9.059314000000001  20.897154747472 1.255765367454622 7.858551360185909  33.820904 16.20108 1.880707  35.086548 16.999722 1.746978  34.95034840733805 15.77508135514333 2.236335284653653  31.798969 19.959963 14.689488  26.63432249978735 4.7
[...]
<PointData  Vectors="u"> 
<DataArray  type="Float64"  Name="u"  NumberOfComponents="3" format="ascii">6.4148187825599678e+01 -7.9900782787998196e+01 1.3834588629426761e+01  8.7135870713196553e+01 4.0898160241641088e+00 9.5174667762443939e+00  8.0914603744271716e+01 -3.6068696578719461e+01 -2.0334386960334971e+01  9.8005494828379014e+01 -1.6624046843505162e+01 -1.5000798584568262e+01  1.9282481485179293e+01 -1.5654793252463770e+00 -4.3490311435187969e+00  2.2545790013298497e+01 4.7078229459865684e+00 4.5511003096816978e+01  8.2713811421733098e+01 9.8676641378822136e+00 1.1001439170614178e+01  7.7808506134125736e+01 1.9592436228174705e+01 4.4692692926275257e+01  3.6728975626888165e+01 1.1186758297163746e+00 -2.4891579612045700e+01  7.7068186316376611e+01 -1.1082673765992290e+01 -5.0014596813348959e+01  4.3077038700174043e+01 9.5214239883668075e+00 -2.4372527113010136e+01  6.7404428116684045e+01 1.5501152177520435e-02 -9.2785307110620896e-01  8.1140850266204030e+00 2.2825196829171457e+01 -2.0334289102606222e+00  7.8477805002009875e+00 -3.3874057466137558e+01 -2.5486220612039499e+01  4.7749418519202322e+00 -1.9830430484787748e+01 -1.4546106797270781e+01  4.2247549793744540e+01 -1.7565244062040698e+01 -1.9032237149610701e+01  1.0731633592953943e+02 1.3882384576687345e+01 -1.1581665020224275e+01  7.6332713377986025e+01 -2.9718194094053491e+01 -8.3485948963451193e+00  8.5101364393395258e+01 1.0024434993223378e+01 -6.9062810046248668e-01  9.1739074015736534e+01 -3.1197768604742437e+00 -6.6555711279490923e+00  1.5124588493803168e+02 7.7973988724740806e+01 -4.4509979955890245e+01  2.7273360233081792e+02 7.8188713443344994e+01 -1.0838738774697413e+01  1.7738317747945115e+02 9.1955876109942068e+01 1.5617660342474025e+01  2.6068275507004637e+02 6.2167868163340266e+01 4.1303701138816882e+00  6.8420556976581466e+01 5.2502628170042245e+00 3.2188535315896502e+01  4.8620351994811777e+01 -7.5382437260986341e+00 4.8319586464797794e+01  7.0506288569691463e+01 -3.9695144016719195e+00 1.2876677651751292e+01  7.0548221617210146e+01 4.9558889172787088e+00 3.1348368669033956e+01  3.5830861905179779e+02 4.2800880355771561e+01 -1.6959031174742114e+02  3.1258676380405387e+02 1.6848078252253821e+01 9.3268051093263360e-01  9.7664302179347189e+01 1.8362294690545781e+01 -9.9360116929399666e+01  1.5718236070596268e+02 -1.1427766215657654e+01 -1.2608072655939623e+01  8.1619905184943093e+01 -6.7061667590446286e+00 -5.8966516984202229e+01  9.8638226512448171e+01 1.1341887263137982e+01 -5.8583087617329340e+01  9.4856708915099276e+01 -1.3103888237016147e+01 7.5367930677144257e-01  8.6063530350962793e+01 -2.9288897891547969e+00 5.0110462375627423e+00  8.3352850256145899e+01 -1.1572762947358839e+00 6.1041408916544693e-01  1.5322784017519740e+02 5.0747493577334048e+01 -1.9737786306042043e+01  8.2812819770114700e+01 4.0989555081766952e+01 -5.2086737596211155e+00  6.8316339345214175e+01 -5.6212399350974401e+01 2.9104733901444352e+01  7.5887425288422151e+01 -3.2866400901588577e+01 7.1593030399273463e+00  7.7990608847091451e+01 -2.9612380049258640e+01 1.5335695752162058e+01  8.7326109498823385e+01 -3.1456058552064647e+01 3.7775442087013467e+01  9.0761533914138699e+00 -1.6720163047416305e+00 3.5221770509271604e+00  8.3561114267720047e+00 -1.5008386875917950e+01 1.0922081856736833e+01  1.3307417721439021e+01 2.6322719039204028e+00 1.2258159058640963e+01  1.6305887129917171e+01 -5.0632206247200218e+00 3.4403798267476673e+00  1.0428741334737312e+02 1.7093548603619897e+01 2.2242171952145693e+01  2.7293008885165154e+01 6.6178960139760207e+01 7.1550870055342290e+00  3.1915199458019799e+01 7.0293228288415094e+01 2.1059845429538356e+01  1.0876338356258918e+02 1.4910182927666153e+02 -4.4309983525279462e+00  8.7190408194482714e+01 4.5745181331393518e+01 5.3078008968979544e+00  5.6565403009364054e+01 6.0882505869455869e+01 2.5834343808960838e+01  1.0869369865573135e+02 5.1542595341520098e+01 1.0889294136764578e+01  8.4991396293887107e+01 1.8572377154827649e+01 5.2034761660701987e+00  7.5173883211172310e+01 3.8249240719663980e+01 1.3266456605299734e+01  6.6071565112608340e+01 -1.4844942852337811e+01 -2.2402560760622587e+00  9.4971442863635943e+01 -4.2305674491397847e+00 7.7006149287721186e+00  1.1503946918042320e+02 -3.9599684637153857e+01 -5.8372152077144328e+00  1.0435150708794021e+02 -1.3656091185783339e+01 -4.9382431258306173e-02  8.9888286273854462e+01 -1.8774306577455288e+01 7.7146867035709747e+01  4.7557236582724727e+01 -1.2042200836050501e+01 6.9056265958750018e+01  5.8619369715593947e+01 -1.1572404988013442e+01 6.7174786490725282e+01  8.0519330339418687e+01 -2.1532538766745979e+01 4.7937993230397439e+01  2.1415117903867831e+01 3.2696926253255683e+01 -3.4613537335027381e+01  6.6570613957744001e+01 5.1758674789384685e+01 -9.4997757547472915e+01  1.2298547299907518e+02 4.1823112693787394e+01 -5.9515576559351210e+01  7.8021983518234421e+01 1.6215622913183228e+01 -2.1287695323699392e+01  7.7826603771831230e+01 -3.7607653128712769e+01 -3.8891071699261197e+01  4.1005849948479238e+01 -6.2993271507768583e+01 -5.7473052555065131e+01  2.2187980405985439e+01 -1.6335358521725794e+01 -9.5347033917758104e+00  3.8478123300762248e+00 -1.5695536547651054e+01 -9.5733673987012224e+00  1.5799612759396977e+01 -4.1479249711147574e+01 7.5923575037568742e+00  2.2855938266931847e+01 -5.0704013430132910e+01 -7.7766918313502913e+00  1.3027242826781666e+01 -4.5162610082557453e-01 4.0930540264742582e+01  4.7386402070301834e+01 5.0373588221613916e+00 3.0664557903592954e+01  4.3175434062367293e+00 1.2421206837398328e+01 2.7365468898299493e+01  6.2192910155325416e+00 7.6215732655627644e+00 2.3853753585684863e+01  5.7062496775309796e+01 1.7576123117038929e+01 3.1428038711483921e+01  4.9368974865898878e+01 -1.1004017734315951e+01 1.1758573245636930e+01  4.6068713800721497e+01 1.2848253647529443e+01 -2.4678876968622934e+01  4.6010808369816836e+01 1.8268375596928585e+01 -3.5825767009082369e+01  7.4769849254728456e+01 8.1139887157992465e+00 -2.3687244430790145e+01  6.7074969553315313e+01 2.3819281126009432e+01 -2.2036162613381798e+01  2.7883265966876028e+01 5.6275190981176792e+01 9.9213889125511123e+00  5.4454303157119092e+01 5.7222513093156792e+01 1.3687708516924891e+01  2.9676399440298972e+01 5.9415941737496787e+01 2.0516850731050916e+01  5.7849128646302766e+01 3.4204496647375329e+01 -6.5594662337925289e+00  1.1397731639757571e+02 -2.9934816545596398e+01 4.5583026868285792e+01  1.1602365052399848e+02 -5.4364432245078248e+01 2.5578164239233814e+01  9.5905918528943829e+01 -4.0022249608644003e+01 4.4804525397970998e+01  1.0088185165000858e+02 -5.1687028687437909e+01 7.5972361363305820e+00  2.7973426627202741e+01 5.3707396889537911e+01 1.9936433831375261e-01  4.4221204863712231e+01 6.7332904702764182e+01 3.4024412594132514e+00  1.9098147225706494e+01 5.1983354618598511e+01 4.4459632146709680e+00  3.3587186057704372e+01 5.6745418844199165e+01 8.0172872760698848e+00  1.1324081189700929e+02 -1.7315827399782101e+01 1.1198467585716299e+01  9.9309336557135893e+01 -1.8729167795814980e+01 2.4621462225773733e+01  2.0828325592587195e+01 2.7102451806408322e+01 3.9547090573675938e+01  2.9675353656928856e+01 4.1689299687730426e+01 5.7099779239078551e+01  4.9864499967329763e+01 4.8367768055343330e+00 3.0512138983023153e+01  4.6743559572535695e+01 4.0675849700058748e+01 -3.0258075977425380e-01  7.5180024628513152e+01 1.5489039264878452e+01 6.4910922653110291e+01  3.3992888764028230e+01 2.7367955388120411e+01 6.4166521005507931e+01  5.3131453720865700e+01 9.5599689531596059e+00 6.9236944613922546e+01  5.1033528278489030e+01 1.0464441151109426e+01 4.6587797726074093e+01  7.3119465534009990e+01 4.4710661873370228e+00 2.6309143527425448e+01  5.1592349974083810e+01 5.3542980161372702e+00 3.6443327929170934e+01  5.2856235289692044e+01 1.0215109604571033e+02 5.6300179622179861e+01  1.9965613881358998e+01 4.8818901419706179e+01 5.5598215531907229e+01  2.6627752890452818e+01 3.2375420127894230e+01 6.2264476872440511e+01  4.9123197813559393e+01 5.5639947473225860e+01 5.4881005250793244e+01  1.3024230952476287e+02 1.1059108541306369e+02 3.9058582966191075e+01  1.0128854663735125e+02 1.0108111044012404e+02 5.4387278856183691e+01  1.0839166087163518e+02 1.1325165370599225e+02 5.7134475999899074e+01  1.0538431668712684e+02 1.1367862960744401e+02 4.4041842664003354e+01  4.3394913595325221e+01 3.4860210401190791e+01 5.9732148527659863e+00  4.8690988255107321e+01 1.7649875561626697e+01 5.2582928972281107e-01  1.7477056592453245e+01 2.1766403633734104e+01 1.1462406069784164e+01  4.8353161559507882e+01 2.7887331476445205e+01 1.3560867545080331e+01  4.9846748842320693e+01 7.9195639204568664e+00 -9.7723972703911155e+00  6.5504140195413058e+01 -1.5895865817350318e+01 2.1517065272247507e+01  4.4556433905445658e+01 -2.3660356530766546e+01 -1.1390115041697184e+00  2.1939215317568703e+01 2.0526404205053861e+01 1.1190500018642972e+01  -9.6797298202681048e-01 -4.6409531311321686e+01 -6.0526146211958483e+01  1.9248865716139026e+01 -7.4234774727509787e+01 -8.6871038632290507e+01  4.2884606353188637e+01 -5.1205872885667965e+01 -9.2001513007159843e+01  3.7585296823747001e+01 -8.7428728363013349e+01 -1.2312167056679861e+02  1.0187129676559249e+02 2.3172019825774012e+01 4.5671685914012258e+01  3.2229687108564086e+01 5.6844136096973109e+01 6.2797780767872688e+01  7.9808685395972418e+01 3.8619922170711817e+01 2.0693755472172111e+01  4.9060436990613631e+01 7.0573795348496631e+01 7.5987247882673685e+01  8.9374170386425163e+01 -6.3381753648138826e+01 3.0463235522270843e+01  8.3262330132474403e+01 -7.7197787975528783e+01 -1.1167901260394986e+01  1.4709891864306130e+02 -5.4235910334048718e+01 1.7384720526619240e+01  1.1184310309331835e+02 -2.7505823542180469e+01 1.5082326804223454e+01  1.7334201107657876e+01 -5.4471258920186699e+01 -5.7813359962422091e+01  1.1143522707116653e+00 -1.4490410029974791e+01 -1.5807112811613608e+01  1.8950877572867125e+01 -3.7581265314702911e+01 -1.5031449121047913e+01  9.9659701848875812e+00 -4.0917162547193165e+01 -2.3559335996478598e+01  4.8702516489309126e+01 -2.2694336858378364e+01 -1.5462407206753493e+01  1.5912630569421816e+02 1.1421230638775471e+02 1.0636624792134664e+02  2.0885099831631365e+02 6.6854521392995039e+01 7.8980219187888977e+01  1.7365063780498485e+02 7.5384411698998591e+01 8.6882057500405363e+00  1.6652231689444753e+02 9.0645877001995046e+01 5.3608817502304909e+01  7.8629602951887364e+01 8.6345452916406515e+01 3.1474017207374818e+01  8.0851038516030982e+01 1.0433288752570060e+02 6.0244864290103152e+01  8.8075257220785886e+01 6.4023137429144825e+01 7.5812955640527193e+01  8.0549663687253783e+01 -2.6552248714564751e+01 7.2713009964743421e+01  1.8685117177839439e+02 8.5708122204562159e+01 6.7897371620267890e+01  1.3278208498888029e+02 1.2899416250882794e+02 7.9685896109016383e+01  1.6765981068166121e+02 1.2959790909754037e+02 8.9145524377363742e+01  1.1747498247954691e+02 1.0346290076101607e+02 3.6294799535847496e+01  1.7387166029763230e+02 -1.4250016899050179e+01 2.1032904831688949e+01  1.3563535972987179e+02 -4.4532384549058825e+01 3.2410954971196503e+01  7.8684136379982633e+01 -2.8170017766050417e+01 4.2793301427851780e+01  1.4551487771058416e+02 -1.9646180400881882e+01 4.5528999659680537e+01  4.9290695775011395e+00 1.4175823548088774e+01 1.4045089817557088e+01  2.8698806080824319e+01 2.8177909230916792e-01 1.6079770817925745e+01  3.3414822027926590e+01 3.7583180810412600e+01 2.4709337291054108e+01  3.1906777434888113e+01 1.9436994404080881e+01 7.1747120714250423e+00  1.5467037489386223e+02 6.3658509549201057e+01 -6.8445211806981845e+01  2.1192874364636569e+02 4.1858639752994897e+01 -1.4640277082515559e+02  8.0010807330984576e+01 -6.3442746132415140e+00 1.2485992155299876e+01  9.8273701188676895e+01 1.1715604882667456e+01 -5.7543075710902354e+00  1.9464164231164236e+01 1.1768497626272225e+01 -8.8203501423863049e+00  1.3255453631400293e+01 -1.5182759225138478e+00 -1.3345557788057816e+01  1.7863711475060114e+01 1.7063122965416773e+00 -2.4801465008796374e+01  1.5126505781994585e+01 9.5476946627944115e-01 -8.4972319957489173e+00  9.4343102270888082e+01 6.5545983746764350e+01 -2.6194081677559357e+01  8.1033045721357794e+01 1.0999257974456003e+02 -1.5141063495286971e+01  1.1289092785520236e+02 5.4828494438473911e+01 -2.9131897989770312e+01  7.0601318668000800e+01 5.1215469962066429e+01 -2.1607578012890926e+01  1.7370209738817167e+02 1.4096082140204951e+01 1.1365727018946684e+01  1.3554867182840113e+02 1.3910773776386753e+01 8.3162120193735112e-01  1.7427501649152501e+02 2.3801884676244718e+01 1.7993491854601629e+00  1.3853878910091814e+02 2.8182478650468596e+01 1.0108664448830462e+01  1.1961222649855496e-01 -2.1532926604756064e-01 7.5120361080730025e-03  6.5854405171116934e-03 -5.2410763525940915e-02 -2.1566790252816197e-02  -6.7024189642978960e-01 1.0936301120820364e+00 5.0706202247463839e-01  1.6712414889913993e-01 -1.7272404631992436e-01 -1.1336547187595600e-01  1.3013776167441833e+02 1.0270459935966683e+01 -6.1634129737382670e+00  9.9139365561267795e+01 -5.4236176334760202e+00 -7.1609063619879452e+00  1.3575040906755163e+02 3.3499963680374009e+01 -1.4345200095671235e+01  5.0829775984422270e+01 3.7822835888695273e+01 -9.6782512448495084e-01  2.7017307465071067e+01 -2.8932644810175965e+01 -2.0908152080060919e+01  6.6668464283756022e+00 -2.9262881598362245e+01 -1.0659978066333725e+01  6.5218625322389627e+01 4.0465595486582977e+01 -5.8577341347351606e+01  1.1646592673084091e+02 2.5585019836180692e+01 -2.2378524190082277e+02  1.2064420374709481e+02 2.4193486709197490e+01 -1.7562750045661392e+02  4.5578199272520727e+01 2.1791536707129790e+01 -2.1336462438523080e+02  1.4329411262563204e+02 4.6564330881101910e+01 -1.3633206413764498e+02  5.2261318476071288e+01 6.0394421340459438e+01 -6.7942238769359776e+01  5.3625572214333801e+01 2.0832662875366914e+01 -8.2262052490250781e+01  -2.8701819727182965e+01 3.3289179947031600e+00 -6.5893656113511213e+01  5.3499519536612134e+01 3.5055136251219210e+01 -1.2499542274508077e+02  1.0482182280935889e+02 -8.7438891993705266e+00 -1.6038649549886586e+01  1.0028518857457119e+02 2.6692944946050208e+01 -8.7114178191785818e+00  -1.3336016055613410e+01 3.8812493538040414e+01 1.0856792355047633e+01  -3.8740205882389183e+00 3.3105962979711606e+01 1.1805286396003115e+01  8.7672593558210448e+00 3.3054756916848447e+01 1.0673308080449011e+01  1.0342736264721614e+01 5.1225902310518180e+01 1.3988797656861475e+01  1.7577783922989869e+02 3.9253363417427160e+01 -5.9344307044426232e+00  1.4021788468106610e+02 2.5427020563602397e+01 5.0388689345227611e+01  1.8933821283267540e+02 4.8307470442988425e+01 1.1199991012972718e+02  9.6950416051094820e+01 6.2242667260037521e+01 4.7966307592587313e+01  1.4703572681555320e+02 4.8277840924530038e+00 5.0995524743105008e+01  2.2597552524981000e+02 6.5840722762391763e+00 -1.6396337001228736e+00  2.6771031198706976e+02 -3.1590807731598375e+01 -5.9480814927183744e+01  1.4698670425606042e+02 -1.8333495627189748e+01 -2.6549000184218254e+01  9.5048307099085790e+01 -8.3927242269063370e+01 -1.1376123195240188e+01  6.0071640591447164e+01 -6.0368668542788313e+01 -3.8042981888690569e+01  4.3071270708307445e+01 -3.7370463034149090e+01 -1.9006466162084280e+01  9.8081533020776149e+01 -4.9277219017841759e+01 1.3763098807464193e+01  1.1158241407193715e+02 -6.7386704731301620e+01 2.1667481736372395e+01  1.1139773045501028e+02 -4.5479251098056743e+01 -7.4876272988723969e+00  1.0733980372961429e+02 -6.1673119505188303e+01 -5.4130975804590982e+00  1.5587843560429283e+02 6.7935406516747150e+01 2.5335135961379091e+01  1.3145214165852693e+02 3.8409976731874664e+01 5.0130483908272652e+00  1.2591629855211293e+02 6.8856289295962924e+01 1.3645724603388016e+01  7.4869326845388230e+01 -3.2259679990053392e+01 6.6816843664252360e+01  8.1346917735226555e+01 -1.9258294485423168e+01 3.7420928086493234e+01  8.4701769696898111e+01 -3.2791581581396819e+01 5.0652367519928532e+01  7.9892595512275918e+01 -2.2976143586465380e+01 3.5235022758088334e+01  1.8397143935952940e+01 1.0772869568045655e+01 2.2690669781749541e+01  2.8020363759129644e+01 4.2521574335651868e+00 2.7162854655873335e+01  4.0756044426977041e+01 7.8781984815275568e+00 3.9740157015600744e+01  2.1045900349835989e+01 2.5399798642069356e+01 3.9148265897096444e+00  3.2381127956921993e+01 4.2503308153512769e+01 -6.8518773257842138e+00  2.7798636994230318e+01 4.0968575892141224e+01 1.1166495307281123e+01  4.6496649177448992e+00 -6.5447577262405536e+00 1.9001157999475482e+00  7.8837672433408230e+01 2.3346095144589558e+01 1.2909605683231899e+01  6.1531091803382260e+01 -6.3242933092745503e+01 -2.5918379616500602e+01  5.5747858692691317e+00 -3.6509434420421066e+01 -1.5786544235251105e+01  5.2801142671121234e+01 -1.0243625747617198e+01 -2.5536956933336894e+00  4.2558016399436660e+01 -5.8876389462309987e+01 -2.1442933345636810e+01  7.1458129010741544e+01 1.3142621835968168e+02 -3.4448557963424285e+01  1.5392331742762693e+02 1.3350053963114641e+02 -7.3632235135756588e+01  1.2368964662187980e+02 1.5030917125330157e+02 -1.3086883471233318e+01  1.4944689846208288e+02 8.9689914642821449e+01 -3.1256539405998296e+01  7.9878689343242272e+01 2.2882269224436971e+01 5.3482291120044536e+01  5.7252056679367854e+01 2.5251274777848316e+01 3.9205106888704773e+00  1.2190030441627071e+02 1.1062718039387123e+02 1.6912995201272469e+01  9.3996566580930079e+01 6.7207620303949611e+01 1.1978810945902600e+01  1.2861435030926503e+02 9.8763670149412192e+01 1.6534712431876940e+01  1.3766880001155718e+02 8.3850610487581108e+01 2.3033632218107654e+00  4.4496427324368248e+01 -7.6338503804767601e+00 4.7129252575499159e+01  2.6449065745073387e+01 1.5088841860870703e+01 4.7021994278560889e+01  3.4374727339892914e+01 1.7997030078435625e+01 3.2932086848746884e+01  1.4088931724954332e+02 2.7518045696734472e+01 -3.6261593700246033e+00  1.4505413575387325e+02 1.3443266084556511e+01 5.6366543661352464e-01  1.2353554334016282e+02 3.2943366229731623e+01 4.6644233591149797e+00  1.2198252691653950e+02 1.4265844756816339e+01 1.5327588397136584e+00  7.5811103241336809e+01 -1.2599644372506939e+01 -5.3901339831087590e+01  7.4895165808724812e+01 -1.7018127583613310e+01 -8.6437323597831565e+01  1.1806947918091011e+02 -8.2181872851104227e+00 -2.7617432107098427e+01  1.1523823076317734e+02 -1.0362179472974230e+01 -3.0050077000046464e+01  2.1690245888991413e+01 6.1579490990257099e+01 1.1251680175692798e+01  -7.9518163559142163e+00 4.1264346381692121e+01 7.4696665380924845e+00  4.7778088204080680e+00 8.5936921576211446e+01 3.0719360302971253e+01  3.0751232302412433e+01 6.6697986218674089e+01 1.9161453764924442e+01  2.3412973677879421e+01 2.1722343946166505e+00 -1.6450582430187840e+01  3.4925895696085838e+01 -9.2572284696213636e+00 -2.1637681063808440e+01  4.4125835475176416e+01 -4.3892392387897043e+00 -1.4916426502427452e+01  1.5948518810959405e+02 -5.1495574365715719e+01 7.9430726764775708e+00  1.3170868012913019e+02 9.2280944237989804e+00 9.7592971889780167e-01  1.1638577285704609e+02 -1.7604744399168222e+01 9.7067288045768798e+00  5.0925265975598322e+01 3.8032169859939753e+00 1.0778775647359549e+00  7.2723111457115692e+01 7.6416670178078299e+00 9.5988750411274970e-02  7.6905253841389779e+01 -4.6435474624054791e+00 -4.4925430075221655e+00  3.9761946440039708e+01 5.1130354219247955e+01 3.0214937023454935e-01  5.4418457696111155e+01 5.7855715144286357e+01 9.1699618469816997e+00  2.2690311204526314e+01 4.5314439388412723e+01 1.4058186128895340e+01  1.2675304494847792e+02 1.8995029335381076e+02 -1.5827271677043501e+02  9.7891149928588084e+02 4.0635332859657467e+02 -3.0577104293454869e+02  1.7339789442964900e+01 2.7179307441319111e+02 -9.7223041996249336e+01  2.6535917747180434e+02 7.3926142237776659e+01 -7.5323221040055031e+01  1.4186178759865956e+02 1.7826369139502898e+01 -1.6134997186365683e+02  1.6283166327842122e+02 -9.1240614806502218e-01 -1.6717921211294598e+02  1.7614759083034744e+02 1.6633845502438739e+01 -1.9976032196648893e+02  1.2211407127565709e+01 1.0322099897943234e+01 -2.1019241447597928e+01