<?xml version="1.0"?>
<VTKFile type="UnstructuredGrid"  version="0.1"  >
<UnstructuredGrid>
<Piece  NumberOfPoints="633" NumberOfCells="4768">
<Points>
<DataArray  type="Float64"  NumberOfComponents="3"  format="ascii">34.925972 14.823627 8.919129999999999  34.16116 15.699978 7.646983  36.78437218094574 16.80920092228991 8.668988283442175  36.96738427178317 15.67141315784969 7.44600553584724  35.37968632871078 18.75529572769489 10.81447660136447  37.253395 18.29011 10.900098  35.14705274517575 17.09666895625377 10.19562289108383  36.20922993703215 18.52646159130537 8.955563760108895  28.44947532506188 19.97578980697011 2.771330124666097  28.81391 19.862478 1.206187  27.41230703368459 19.30353272607462 1.433204144484342  28.02411280415201 20.66322277099767 2.023723280165352  25.955263 22.939219 2.888069  25.48851 24.547083 2.786266  26.706257 24.535597 2.642296  25.81141670688831 23.93695557629064 1.555956866094582  36.373177 9.606377 2.273764  36.262905 9.206118999999999 1.077623  35.32806 9.288929 1.813319  35.60919431792103 10.25793698080031 1.305113405851828  32.79985 20.289167 6.367303  34.159519 20.7885 7.540285  33.518349 19.214472 7.269745  34.25404183168612 20.78606122182913 6.064719555135569  35.769733 13.097977 9.571764999999999  35.166054 12.684088 10.900583  37.03686873491507 12.71380608465289 10.98878443763218  36.45228671655607 14.73809763534039 9.802910155854615  33.896721 18.057539 8.062870999999999  35.1364803863777 17.50713905269505 7.49853625377026  33.23620606541256 21.74404125196931 4.44953438516409  33.68323295978014 23.16724941082143 2.498774355638873  34.13979185275024 23.18717423107914 4.317442873814834  34.6681874310862 21.93026978052065 2.835351764198591  35.86335 14.743967 0.03180900000000003  35.027061 13.234049 0.03180900000000003  37.05069 13.351755 0.03180900000000003  35.92211011768444 13.42680037003208 1.125692114702213  24.970671 17.243484 4.22919  25.634613 16.906595 3.379239  24.016993 16.802717 3.32941  24.09446861273442 17.91847682742779 2.620841973758472  35.95296488285735 18.91229442006089 5.073159226309348  34.57471212672811 16.88261986221835 6.082982073252245  34.852684 12.468493 6.657904  34.233505 13.80504 6.283744  34.975746 14.110637 7.423448  36.02626378290078 13.41540593226919 5.749085437318049  28.476978 15.800415 2.039324  27.647249 14.112927 1.988805  26.935184 15.257313 2.185978  26.8614620681676 16.02975962595324 1.415462846592458  33.808357 17.498457 2.70333  33.5353982077402 17.58152731970218 4.769079321830566  32.58396108641409 16.70781553720084 3.878981093912758  33.67191329457509 15.83759668816388 3.302101311175961  37.96512441230712 18.96127392203792 6.407072222673764  38.041595 17.123211 5.224794  37.98227180431896 18.90555593682664 4.391045697035501  38.719055 18.385902 5.249419  24.84233314262383 25.90155901559168 1.57038782502973  26.133881 24.505461 0.03180900000000003  24.652531 24.694885 0.03180900000000003  26.40012136054056 25.75539111624172 1.294851272476892  35.46017315323839 10.89391330802153 4.813987667860482  35.280407 11.515438 7.799182  36.10772391971128 9.965968214394035 7.274309337755584  37.32120878729651 11.86917646561535 6.412381995762441  33.178772 21.550097 6.469158  25.975105 17.765808 4.327852  25.48942801927428 18.5780475429667 3.357529477158949  31.426573 22.762415 1.330631  32.376961 23.150793 0.81781  32.68768787344062 24.78942777476198 2.005033206797598  32.09387167564546 22.57404514615938 3.094849308004562  39.045494 10.069818 3.075721  37.869385 9.675609 2.868666  37.5586772180867 11.35823947001052 3.266179856145174  37.7171543739741 10.47243950097341 1.469991047828097  30.082388 13.280383 0.632143  30.359232 12.944481 0.932959  30.127121 13.583051 1.345778  29.657284 12.961717 1.127946  39.090248 13.500648 2.913805  39.366375 13.021732 0.806956  38.71946198707353 12.08984611128799 1.736648956801448  37.81055933137018 14.01839863026157 2.097920574395856  38.01102029335819 12.33102253179327 9.87080429137152  38.00117039930827 13.78629504605068 8.30915984597881  38.66144780338503 12.12626056565089 7.651200753023522  36.97583538284601 12.24395756588019 8.271429691787787  38.49543516815565 15.35723404831595 8.425252259239432  39.95923699999999 14.774792 9.341996999999999  39.95923699999999 16.317478 9.353056  38.66782822712387 16.20755299638004 9.807116087882241  36.357586 23.273771 3.362757  35.128666 23.865057 2.627351  36.012405 23.124298 1.254603  34.9824107118849 22.60487638327822 1.66620347205701  34.016747 22.569672 6.972049  35.67095092766829 21.45492927177892 6.447733729078435  35.08733121462075 23.41449577798856 6.170739333207607  35.88132380696834 22.80300676254319 7.3513442757512  27.746357 19.811232 3.999814  28.42800495619781 18.89238279639824 3.244341935762162  26.91331639669881 19.46530344248805 2.808665806923226  33.820904 16.20108 1.880707  35.086548 16.999722 1.746978  34.95034840733805 15.77508135514333 2.236335284653653  33.100658 16.382524 6.600626  33.611755 14.991608 6.458076  34.25757869092907 15.73588301612896 5.049486111773797  37.463139 19.688679 10.595435  38.873619 19.681282 9.888266  38.310432 18.460119 10.389297  38.28335273226884 18.54815541404905 9.217269718650103  34.1236 14.798654 1.075203  33.089977 15.202509 2.188452  33.170036 13.977596 1.953035  34.79208870403635 13.77364867003594 2.244762912889382  34.20486995897866 19.23461811333679 11.66113739738248  35.3703783443256 21.23776335670242 11.15875754355063  35.60395962177059 20.02635696842606 9.790179702125576  27.959827 24.679432 2.805178  27.291712 25.644104 2.186163  27.58101195843822 24.53246579187364 1.336580782465817  25.985134 14.148208 1.597938  26.927578 13.774155 0.03180900000000003  26.854818 15.02271 0.03180900000000003  36.127399 12.349361 0.03180900000000003  35.80975001242335 11.747724420826 1.703169560867142  37.41876041778538 12.71946846567378 1.964627908073157  25.635126 18.995255 4.95416  23.96228247638771 18.58254860562164 4.367040784990282  32.630962 18.082941 10.586537  33.50076704963327 17.50279018089598 12.31735151933017  38.859093 15.805743 12.054678  38.180935 17.157255 11.092117  39.235237 16.640247 11.138357  38.42750155475427 14.96188162810062 10.46017028859263  28.276112 14.89914 0.03180900000000003  28.508846 13.094235 0.7172460000000001  29.073206 14.329733 1.909893  39.372799 12.331864 2.750795  39.95923699999999 12.180956 1.260697  39.95923699999999 10.80794 1.957433  36.815517 20.382288 0.03180900000000003  35.532276 20.329487 1.301372  36.017555 18.529249 1.250958  37.80435478999625 19.14791451607039 1.500323363506789  29.994629 22.780125 3.880782  30.40119 21.493017 4.282473  31.35042 22.124866 2.175622  32.38261 15.507024 5.174025  33.361515 14.132536 5.307387  35.210613 15.901191 0.907512  36.20139867551309 16.64672115157533 6.109235855757549  35.56167310103248 15.20045441868246 6.049316656047761  34.144886 19.544273 8.747612  33.270126 19.432592 9.947948999999999  33.680801 17.7101 9.507349  23.130915 18.376059 0.910191  22.143888 16.843657 0.843911  22.981615 16.985748 0.03180900000000003  22.700596 17.543783 1.762939  28.656635 13.116485 1.715777  26.958637 12.699095 1.825399  36.59519569887315 21.60803218462361 1.623952039713563  27.476957 16.51757 0.03180900000000003  28.904976 17.3043 1.911925  29.29147 16.1504 0.797298  39.95923699999999 14.403647 12.07276  39.95923699999999 13.12464 11.762743  39.330593 13.065804 12.885565  38.6349960342968 13.93834042885001 11.72155048755563  29.334404 20.175196 4.294235  30.58371 20.414885 4.826058  30.26347 19.170868 5.049552  30.72489775906255 19.1583582296086 4.37801582041622  36.17322502783335 21.18518004371854 8.112671049599923  37.44179427753664 22.19003624408415 6.818103576600338  24.908894 23.147173 0.03180900000000003  23.434189 22.523716 0.675972  24.9717322274434 22.20737446958616 1.628191222019678  23.69156001490529 24.15655099712097 1.715522921259682  34.239914 24.464321 1.977763  33.777805 23.906139 0.799058  37.35225177837924 20.34709635736109 6.821596901826194  38.45756295252587 21.18710194490674 8.258940909130601  38.84248969608204 19.3923143396146 7.758267821953805  38.74562092525696 20.84103038123416 6.574081385837598  34.977177 21.986736 7.980371  36.94529783108348 22.78958679639232 8.671627194051613  32.731689 16.868843 2.565711  39.95923699999999 20.848059 3.17546  39.340996 21.815605 2.378568  39.95923699999999 21.011469 1.655571  38.46719592582135 21.10161409288208 1.79586821602235  22.878792 21.474516 1.500145  22.245007 21.329477 2.926938  23.8674668101876 21.31304842913903 2.639364323800668  23.26794103168578 22.60710065750504 2.799861877102003  32.318016 11.272042 1.127666  32.987064 12.083483 0.623426  32.853386 12.518908 1.5364  33.9869216550281 11.1552547395708 1.231745671516406  35.58679311048538 19.59329052022815 7.526287454023578  23.659595 15.78618 2.340816  23.748905 14.283957 0.703887  22.243708 16.113802 1.855728  23.34143259814439 16.42631726851218 1.11198896938902  35.620895 17.451046 13.098315  34.877483 21.078976 8.629261  36.41387298467532 21.338557757347 9.81266171873972  39.303242 9.697096 13.363659  39.95923699999999 10.637597 12.604576  39.95923699999999 9.318602 12.102993  38.71481788376952 10.86758144560748 12.517979535122  29.72431 24.030886 0.03180900000000003  29.21178036322339 23.51557553118746 1.813485075038797  30.93631719098914 24.427062427283 1.217761906445626  28.97831331206465 24.85355947291495 1.055785578747047  37.63839 16.306644 12.153436  36.96966688185368 14.55634683178021 11.79856556834604  36.99689689310981 16.33660839698423 10.84736859569906  27.50380001649138 22.37571666166443 1.799102593437615  32.313183 16.200115 13.624086  32.202915 14.814881 13.501052  32.233463 15.894032 12.246408  33.77157689891609 14.38621896962008 13.3082675319021  30.241682 24.374968 4.573461  30.61945842591039 23.64679969671045 2.733494904670299  31.14892653630075 25.49644916600223 3.650508210885707  32.62583336645248 24.12288863045812 4.422152671481942  39.95923699999999 19.284018 8.597018  36.736286 17.50395
[...]
<CellData  Scalars="f">
<DataArray  type="Float64"  Name="f"  format="ascii">3 3 3 3 3 3 3 3 3 3 3 3 3 3 3 3 3 3 3 3 3 3 3 3 3 3 3 3 3 3 3 3 3 3 3 3 3 3 3 3 3 3 3 3 3 3 3 3 3 3 3 3 3 3 3 3 3 3 3 3 3 3 3 3 3 3 3 3 3 3 3 3 3 3 3 3 3 3 3 3 3 3 3 3 3 3 3 3 3 3 3 3 3 3 3 3 3 3 3 3 3 3 3 3 3 3 3 3 3 3 3 3 3 3 3 3 3 3 3 3 3 3 3 3 3 3 3 3 3 3 3 3 3 3 3 3 3 3 3 3 3 3 3 3 3 3 3 3 3 3 3 3 3 3 3 3 3 3 3 3 3 3 3 3 3 3 3 3 3 3 3 3 3 3 3 3 3 3 3 3 3 3 3 3 3 3 3 3 3 3 3 3 3 3 3 3 3 3 3 3 3 3 3 3 3 3 3 3 3 3 3 3 3 3 3 3 3 3 3 3 3 3 3 3 3 3 3 3 3 3 3 3 3 3 3 3 3 3 3 3 3 3 3 3 3 3 3 3 3 3 3 3 3 3 3 3 3 3 3 3 3 3 3 3 3 3 3 3 3 3 3 3 3 3 3 3 3 3 3 3 3 3 3 3 3 3 3 3 3 3 3 3 3 3 3 3 3 3 3 3 3 3 3 3 3 3 3 3 3 3 3 3 3 3 3 3 3 3 3 3 3 3 3 3 3 3 3 3 3 3 3 3 3 3 3 3 3 3 3 3 3 3 3 3 3 3 3 3 3 3 3 3 3 3 3 3 3 3 3 3 3 3 3 3 3 3 3 3 3 3 3 3 3 3 3 3 3 3 3 3 3 3 3 3 3 3 3 3 3 3 3 3 3 3 3 3 3 3 3 3 3 3 3 3 3 3 3 3 3 3 3 3 3 3 3 3 3 3 3 3 3 3 3 3 3 3 3 3 3 3 3 3 3 3 3 3 3 3 3 3 3 3 3 3 3 3 3 3 3 3 3 3 3 3 3 3 3 3 3 3 3 3 3 3 3 3 3 3 3 3 3 3 3 3 3 3 3 3 3 3 3 3 3 3 3 3 3 3 3 3 3 3 3 3 3 3 3 3 3 3 3 3 3 3 3 3 3 3 3 3 3 3 3 3 3 3 3 3 3 3 3 3 3 3 3 3 3 3 3 3 3 3 3 3 3 3 3 3 3 3 3 3 3 3 3 3 3 3 3 3 3 3 3 3 3 3 3 3 3 3 3 3 3 3 3 3 3 3 3 3 3 3 3 3 3 3 3 3 3 3 3 3 3 3 3 3 3 3 3 3 3 3 3 3 3 3 3 3 3 3 3 3 3 3 3 3 3 3 3 3 3 3 3 3 3 3 3 3 3 3 3 3 3 3 3 3 3 3 3 3 3 3 3 3 3 3 3 3 3 3 3 3 3 3 3 3 3 3 3 3 3 3 3 3 3 3 3 3 3 3 3 3 3 3 3 3 3 3 3 3 3 3 3 3 3 3 3 3 3 3 3 3 3 3 3 3 3 3 3 3 3 3 3 3 3 3 3 3 3 3 3 3 3 3 3 3 3 3 3 3 3 3 3 3 3 3 3 3 3 3 3 3 3 3 3 3 3 3 3 3 3 3 3 3 3 3 3 3 3 3 3 3 3 3 3 3 3 3 3 3 3 3 3 3 3 3 3 3 3 3 3 3 3 3 3 3 3 3 3 3 3 3 3 3 3 3 3 3 3 3 3 3 3 3 3 3 3 3 3 3 3 3 3 3 3 3 3 3 3 3 3 3 3 3 3 3 3 3 3 3 3 3 3 3 3 3 3 3 3 3 3 3 3 3 3 3 3 3 3 3 3 3 3 3 3 3 3 3 3 3 3 3 3 3 3 3 3 3 3 3 3 3 3 3 3 3 3 3 3 3 3 3 3 3 3 3 3 3 3 3 3 3 3 3 3 3 3 3 3 3 3 3 3 3 3 3 3 3 3 3 3 3 3 3 3 3 3 3 3 3 3 3 3 3 3 3 3 3 3 3 3 3 3 3 3 3 3 3 3 3 3 3 3 3 3 3 3 3 3 3 3 3 3 3 3 3 3 3 3 3 3 3 3 3 3 3 3 3 3 3 3 3 3 3 3 3 3 3 3 3 3 3 3 3 3 3 3 3 3 3 3 3 3 3 3 3 3 3 3 3 3 3 3 3 3 3 3 3 3 3 3 3 3 3 3 3 3 3 3 3 3 3 3 3 3 3 3 3 3 3 3 3 3 3 3 3 3 3 3 3 3 3 3 3 3 3 3 3 3 3 3 3 3 3 3 3 3 3 3 3 3 3 3 3 3 3 3 3 3 3 3 3 3 3 3 3 3 3 3 3 3 3 3 3 3 3 3 3 3 3 3 3 3 3 3 3 3 3 3 3 3 3 3 3 3 3 3 3 3 3 3 3 3 3 3 3 3 3 3 3 3 3 3 3 3 3 3 3 3 3 3 3 3 3 3 3 3 3 3 3 3 3 3 3 3 3 3 3 3 3 3 3 3 3 3 3 3 3 3 3 3 3 3 3 3 3 3 3 3 3 3 3 3 3 3 3 3 3 3 3 3 3 3 3 3 3 3 3 3 3 3 3 3 3 3 3 3 3 3 3 3 3 3 3 3 3 3 3 3 3 3 3 3 3 3 3 3 3 3 3 3 3 3 3 3 3 3 3 3 3 3 3 3 3 3 3 3 3 3 3 3 3 3 3 3 3 3 3 3 3 3 3 3 3 3 3 3 3 3 3 3 3 3 3 3 3 3 3 3 3 3 3 3 3 3 3 3 3 3 3 3 3 3 3 3 3 3 3 3 3 3 3 3 3 3 3 3 3 3 3 3 3 3 3 3 3 3 3 3 3 3 3 3 3 3 3 3 3 3 3 3 3 3 3 3 3 3 3 3 3 3 3 3 3 3 3 3 3 3 3 3 3 3 3 3 3 3 3 3 3 3 3 3 3 3 3 3 3 3 3 3 3 3 3 3 3 3 3 3 3 3 3 3 3 3 3 3 3 3 3 3 3 3 3 3 3 3 3 3 3 3 3 3 3 3 3 3 3 3 3 3 3 3 3 3 3 3 3 3 3 3 3 3 3 3 3 3 3 3 3 3 3 3 3 3 3 3 3 3 3 3 3 3 3 3 3 3 3 3 3 3 3 3 3 3 3 3 3 3 3 3 3 3 3 3 3 3 3 3 3 3 3 3 3 3 3 3 3 3 3 3 3 3 3 3 3 3 3 3 3 3 3 3 3 3 3 3 3 3 3 3 3 3 3 3 3 3 3 3 3 3 3 3 3 3 3 3 3 3 3 3 3 3 3 3 3 3 3 3 3 3 3 3 3 3 3 3 3 3 3 3 3 3 3 3 3 3 3 3 3 3 3 3 3 3 3 3 3 3 3 3 3 3 3 3 3 3 3 3 3 3 3 3 3 3 3 3 3 3 3 3 3 3 3 3 3 3 3 3 3 3 3 3 3 3 3 3 3 3 3 3 3 3 3 3 3 3 3 3 3 3 3 3 3 3 3 3 3 3 3 3 3 3 3 3 3 3 3 3 3 3 3 3 3 3 3 3 3 3 3 3 3 3 3 3 3 3 3 3 3 3 3 3 3 3 3 3 3 3 3 3 3 3 3 3 3 3 3 3 3 3 3 3 3 3 3 3 3 3 3 3 3 3 3 3 3 3 3 3 3 3 3 3 3 3 3 3 3 3 3 3 3 3 3 3 3 3 3 3 3 3 3 3 3 3 3 3 3 3 3 3 3 3 3 3 3 3 3 3 3 3 3 3 3 3 3 3 3 3 3 3 3 3 3 3 3 3 3 3 3 3 3 3 3 3 3 3 3 3 3 3 3 3 3 3 3 3 3 3 3 3 3 3 3 3 3 3 3 3 3 3 3 3 3 3 3 3 3 3 3 3 3 3 3 3 3 3 3 3 3 3 3 3 3 3 3 3 3 3 3 3 3 3 3 3 3 3 3 3 3 3 3 3 3 3 3 3 3 3 3 3 3 3 3 3 3 3 3 3 3 3 3 3 3 3 3 3 3 3 3 3 3 3 3 3 3 3 3 3 3 3 3 3 3 3 3 3 3 3 3 3 3 3 3 3 3 3 3 3 3 3 3 3 3 3 3 3 3 3 3 3 3 3 3 3 3 3 3 3 3 3 3 3 3 3 3 3 3 3 3 3 3 3 3 3 3 3 3 3 3 3 3 3 3 3 3 3 3 3 3 3 3 3 3 3 3 3 3 3 3 3 3 3 3 3 3 3 3 3 3 3 3 3 3 3 3 3 3 3 3 3 3 3 3 3 3 3 3 3 3 3 3 3 3 3 3 3 3 3 3 3 3 3 3 3 3 3 3 3 2 2 3 3 3 3 3 2 2 2 2 3 3 3 3 3 3 2 3 3 3 3 2 3 3 3 3 3 3 3 3 3 3 3 3 3 3 3 3 3 3 3 3 3 3 3 3 3 3 3 3 3 3 3 3 3 3 3 3 3 3 3 3 3 3 3 3 3 3 3 3 3 3 3 3 3 3 3 3 3 3 3 3 3 3 3 3 3 3 3 3 3 3 3 3 3 3 3 3 3 3 3 3 3 3 3 3 3 3 3 3 3 3 3 3 3 3 3 3 3 3 3 3 3 3 3 3 3 3 3 3 3 3 3 3 3 3 3 3 3 3 3 3 3 3 3 3 3 3 3 3 3 3 3 3 3 3 3 3 3 3 3 3 3 3 3 3 3 3 3 3 3 3 3 3 3 3 3 3 3 3 3 3 3 3 3 3 3 3 3 3 3 3 3 3 3 3 3 3 3 3 3 3 3 3 3 3 3 3 3 3 3 3 3 3 3 3 3 3 3 3 3 3 3 3 3 3 3 3 3 3 3 3 3 3 3 3 3 3 3 3 3 3 3 3 3 3 3 3 3 3 3 3 3 3 3 3 3 3 3 3 3 3 3 3 3 3 3 3 3 3 3 3 3 3 3 3 3 3 3 3 3 3 3 3 3 3 3 3 3 3 3 3 3 3 3 3 3 3 3 3 3 3 3 3 3 3 3 3 3 3 3 3 3 3 3 3 3 3 3 3 3 3 3 3 3 3 3 3 3 3 3 3 3 3 3 3 3 3 3 3 3 3 3 3 3 3 3 3 3 3 3 3 3 3 3 3 3 3 3 3 3 3 3 3 3 3 3 3 3 3 3 3 3 3 3 3 3 3 3 3 3 3 3 3 3 3 3 3 3 3 3 3 3 3 3 3 3 3 3 3 3 3 3 3 3 3 3 3 3 3 3 3 3 3 3 3 3 3 3 3 3 3 3 3 3 3 3 3 3 3 3 3 3 3 3 3 3 3 3 3 3 3 3 3 3 3 3 3 3 3 3 3 3 3 3 3 3 3 3 3 3 3 3 3 3 3 3 3 3 3 3 3 3 3 3 3 3 3 3 3 3 3 3 3 3 3 3 3 3 3 3 3 3 3 3 3 3 3 3 3 3 3 3 3 3 3 3 3 3 3 3 3 3 3 3 3 3 3 3 3 3 3 3 3 3 3 3 3 3 3 3 3 3 3 3 3 3 3 3 3 3 3 3 3 3 3 3 3 3 3 3 3 3 3 3 3 3 3 3 3 3 3 3 3 3 3 3 3 3 3 3 3 3 3 3 3 3 3 3 3 3 3 3 3 3 3 3 3 3 3 3 3 3 3 3 3 3 3 3 3 3 3 3 3 3 3 3 3 3 3 3 3 3 3 3 3 3 3 3 3 3 3 3 3 3 3 3 3 3 3 3 3 3 3 3 3 3 3 3 3 3 3 3 3 3 3 3 3 3 3 3 3 3 3 3 3 3 3 3 3 3 3 3 3 3 3 3 3 3 3 3 3 3 3 3 3 3 3 3 3 3 3 3 3 3 3 3 3 3 3 3 3 3 3 3 3 3 3 3 3 3 3 3 3 3 3 3 3 3 3 3 3 3 3 3 3 3 3 3 3 3 3 3 3 3 3 3 3 3 3 3 3 3 3 3 3 3 3 3 3 3 3 3 3 3 3 3 3 3 3 3 3 3 3 3 3 3 3 3 3 3 3 3 3 3 3 3 3 3 3 3 3 3 3 3 3 3 3 3 3 3 3 3 3 3 3 3 3 3 3 3 3 3 3 3 3 3 3 3 3 3 3 3 3 3 3 3 3 3 3 3 3 3 3 3 3 3 3 3 3 3 3 3 3 3 3 3 3 3 3 3 3 3 3 3 3 3 3 3 3 3 3 3 3 3 3 3 3 3 3 3 3 3 3 3 3 3 3 3 3 3 3 3 3 3 3 3 3 3 3 3 3 3 3 3 3 3 3 3 3 3 3 3 3 3 3 3 3 3 3 3 3 3 3 3 3 3 3 3 3 3 3 3 3 3 3 3 3 3 3 3 3 3 3 3 3 3 3 3 3 2 3 3 3 3 2 3 3 3 3 3 3 2 3 3 2 3 3 3 3 3 3 3 3 3 3 3 3 3 3 3 3 3 3 3 3 3 3 3 3 3 3 3 3 3 3 3 3 3 3 3 3 3 3 3 3 3 3 3 3 3 3 3 3 3 3 3 3 3 3 3 3 3 3 3 3 3 3 3 3 3 3 3 3 3 3 3 3 3 3 3 3 3 3 3 3 3 3 3 3 3 3 3 3 3 3 3 3 3 3 3 3 3 3 3 3 3 3 3 3 3 3 3 3 3 3 3 3 3 3 3 3 3 3 3 3 3 3 3 3 3 3 3 3 3 3 3 3 3 3 3 3 3 3 3 3 3 3 3 3 3 3 3 3 3 3 3 3 3 3 3 3 3 3 3 3 3 3 3 3 3 3 3 3 3 3 3 3 3 3 3 3 3 3 3 3 3 3 3 3 3 3 3 3 3 3 3 3 3 3 3 3 3 3 3 3 3 3 3 3 3 3 3 3 3 3 3 3 3 3 3 3 3 3 3 3 3 3 3 3 3 3 3 3 3 3 3 3 3 3 3 3 3 3 3 3 3 3 3 3 3 3 3 3 3 3 3 3 3 3 3 3 3 3 3 3 3 3 3 3 3 3 3 3 3 3 3 3 3 3 3 3 3 3 3 3 3 3 3 3 3 3 3 3 3 3 3 3 3 3 3 3 3 3 2 3 3 3 2 3 3 3 3 3 3 3 3 3 3 3 3 3 3 3 3 3 3 3 3 3 3 3 3 3 3 3 3 3 3 3 3 3 3 3 3 3 3 3 3 3 3 3 3 3 3 3 3 3 3 3 3 3 3 3 3 3 3 3 3 3 3 3 3 3 3 3 3 3 3 3 3 3 3 3 3 3 3 3 3 3 3 3 3 3 3 3 3 3 3 3 3 3 3 3 3 3 3 3 3 3 3 3 3 3 3 3 3 3 3 3 3 3 3 3 3 3 3 3 3 3 3 3 3 3 3 3 3 3 3 3 3 3 3 3 3 3 3 3 3 3 3 3 3 3 3 3 3 3 3 3 3 3 3 3 3 3 3 3 3 3 3 3 3 3 3 3 3 3 3 3 3 3 3 3 3 3 3 3 3 3 3 3 3 3 3 3 3 3 3 3 3 3 3 3 3 3 3 3 3 3 3 3 3 3 3 3 3 3 3 3 3 3 3 3 3 3 3 3 3 2 3 3 3 3 2 3 3 3 3 3 3 3 3 3 3 3 3 3 3 3 3 3 3 3 3 3 3 3 3 3 3 3 3 3 3 3 3 3 3 3 3 3 3 3 3 3 3 3 3 3 3 3 3 3 3 3 3 3 3 3 3 3 3 3 3 3 3 3 3 3 3 3 3 3 3 3 3 3 3 3 3 3 3 3 3 3 3 3 3 3 3 3 3 3 3 3 3 3 3 3 3 3 3 3 3 3 3 3 3 3 3 3 3 3 3 3 3 3 3 3 3 3 3 3 3 3 3 3 3 3 3 3 3 3 3 3 3 3 3 3 3 3 3 3 3 3 3 3 3 3 3 3 3 3 3 3 3 3 3 3 3 3 3 3 3 3 3 3 3 3 3 3 3 3 3 3 3 3 3 3 3 3 3 3 3 3 3 3 3 3 3 3 3 3 3 3 3 3 3 3 3 3 3 3 3 3 3 3 3 3 3 3 3 3 3 3 3 3 3 3 3 3 3 3 3 3 3 3 3 3 3 3 3 3 3 3 3 3 3 3 3 3 3 3 3 3 3 3 3 3 3 3 3 3 3 3 3 3 3 3 2 3 2 2 3 3 3 3 3 3 3 3 3 2 3 3 3 3 3 3 3 3 3 3 3 3 3 3 3 3 3 3 3 3 3 3 3 3 3 3 3 3 3 3 3 3 3 3 3 3 3 3 3 3 3 3 3 3 3 3 3 3 3 3 3 3 3 3 3 3 3 3 3 3 3 3 3 3 3 3 3 3 3 3 3 3 3 3 3 3 3 3 3 3 3 3 3 3 3 3 3 3 3 3 3 3 3 3 3 3 3 3 3 3 3 3 3 3 3 3 3 3 3 3 3 3 3 3 3 3 3 3 3 3 3 3 3 3 3 3 3 3 3 3 3 3 3 3 3 3 3 3 3 3 3 3 3 3 3 3 3 3 3 3 3 3 3 3 3 3 3 3 3 3 3 3 3 3 3 3 3 3 3 3 3 3 3 3 3 3 3 3 3 3 3 3 3 3 3 3 3 3 3 3 3 3 3 3 3 3 3 3 3 3 3 3 3 3 3 3 3 3 3 3 3 3 3 3 3 3 3 3 3 3 3 3 3 3 3 3 3 3 3 3 3 3 3 3 3 3 3 3 3 3 3 3 3 3 3 3 3 3 3 3 3 3 3 3 3 3 3 3 3 3 3 3 3 3 3 3 3 3 3 3 3 3 3 3 3 3 3 3 3 3 3 3 3 3 3 3 3 3 3 3 3 3 3 3 3 3 3 3 3 3 3 3 3 3 3 3 3 3 3 3 3 3 3 3 3 3 3 3 3 3 3 3 3 3 3 3 3 3 3 3 3 3 3 3 3 3 3 3 3 3 3 3 3 3 3 3 3 3 3 3 3 3 3 3 3 3 3 3 3 3 3 3 3 3 3 3 3 3 3 3 3 3 3 3 3 3 3 3 3 3 3 3 3 3 3 3 3 3 3 3 3 3 3 3 3 3 3 3 3 3 3 3 3 3 3 3 3 3 3 3 3 3 3 3 3 3 3 3 3 3 3 3 3 3 3 3 3 3 3 3 3 3 3 3 3 3 3 3 3 3 3 3 3 3 3 3 3 3 3 3 3 3 3 3 3 3 3 3 3 3 2 3 3 3 3 3 3 3 3 3 2 2 3 3 3 3 3 3 3 3 3 3 3 3 3 3 3 3 3 3 3 3 3 3 3 3 3 3 3 3 3 3 3 3 3 3 3 3 3 3 3 3 3 3 3 3 3 3 3 3 3 3 3 3 3 3 3 3 3 3 3 3 3 3 3 3 3 3 3 3 3 3 3 3 3 3 3 3 3 3 3 3 3 3 3 3 3 3 3 3 3 3 3 3 3 3 3 3 3 3 3 3 3 3 3 3 3 3 3 3 3 3 3 3 3 3 3 3 3 3 3 3 3 3 3 3 3 3 3 3 3 3 3 3 3 3 3 3 3 3 3 3 3 3 3 3 3 3 3 3 3 3 3 3 3 3 3 3 3 3 3 3 3 3 2 3 3 3 3 3 2 2 3 3 3 3 3 3 3 3 3 3 3 3 3 3 3 3 3 3 3 3 3 3 3 3 3 3 3 3 3 3 3 3 3 3 3 3 3 3 3 3 3 3 3 3 3 3 3 3 3 3 3 3 3 3 3 3 3 3 3 3 3 3 3 3 3 3 3 3 3 2 2 3 3 2 2 2 2 3 3 2 2 3 3 3 3 3 3 3 3 3 3 3 3 3 3 3 3 3 3 3 3 3 3 3 3 3 3 3 3 3 3 3 3 3 3 3 3 3 3 3 3 3 3 3 3 3 3 3 3 3 3 3 3 3 3 3 3 3 3 3 3 3 3 3 3 3 3 3 3 3 3 3 3 3 3 3 3 3 3 3 3 3 3 3 3 3 3 3 3 3 3 3 3 3 3 3 3 3 3 3 3 3 3 3 3 3 3 3 3 3 3 3 3 3 3 3 3 3 3 3 3 3 3 3 3 3 3 3 3 3 3 3 3 3 3 3 3 3 3 3 3 3 3 3 3 3 3 3 3 3 3 3 3 3 3 3 3 3 3 3 3 3 3 3 3 3 3 3 3 3 3 3 3 3 3 3 3 3 3 3 3 3 3 3 3 3 3 3 3 3 3 3 3 3 3 3 3 3 3 3 3 3 3 3 3 3 3 3 3 3 3 3 3 3 3 3 3 3 3 3 3 3 3 3 2 3 3 3 3 3 3 3 3 3 3 3 3 3 3 3 3 3 3 3 2 3 3 3 3 3 3 3 3 3 3 3 3 3 3 3 3 3 3 3 3 3 3 3 3 3 3 3 3 3 3 3 3 3 3 3 3 3 3 3 3 3 3 3 3 3 3 3 3 3 3 3 3 3 3 3 3 3 3 3 3 3 3 3 3 3 3 3 3 3 3 3 3 3 3 3 3 3 3 3 3 3 3 3 3 3 3 3 3 3 3 3 3 3 3 3 3 3 3 3 3 3 3 3 3 3 3 3 </DataArray>
</CellData>
</Piece>
</UnstructuredGrid>
</VTKFile>