<?xml version="1.0"?>
<VTKFile type="UnstructuredGrid"  version="0.1"  >
<UnstructuredGrid>
<Piece  NumberOfPoints="13699" NumberOfCells="64752">
<Points>
<DataArray  type="Float64"  NumberOfComponents="3"  format="ascii">27.18461036682129 20.64990043640137 18.64289093017578  27.63715996746319 21.04253510514476 18.40573767659836  27.47723546032208 20.72850541154125 18.34422282216721  27.65415000915527 20.67365550994873 18.76905059814453  27.3445348739624 20.96393013000488 18.70440578460693  27.50445938110352 21.2779598236084 18.76592063903809  27.94677510265606 20.75226048508861 18.47038249013596  27.81407451629639 20.98768520355225 18.83056545257568  28.12368965148926 20.69741058349609 18.89521026611328  27.76986055382286 20.80711038668112 18.04555471415864  27.20305061340332 19.72097015380859 18.39343070983887  27.52687728644225 20.1554742690949 18.08043547403156  27.56728732825133 19.84662970274968 18.46052046548664  27.48645558361309 20.26404027024486 18.21949271199875  27.16264057159424 20.02981472015381 18.01334571838379  27.12223052978516 20.33865928649902 17.63326072692871  27.44604554180401 20.57288483659007 17.83940772054368  27.8506922984611 20.38969981918595 18.28658246764653  27.93152404309934 19.97228925169077 18.52761022113441  26.73700904846191 21.30303001403809 17.02576065063477  27.16320266777554 21.60415258202034 16.77822281010549  26.77782917022705 21.59176540374756 16.55570030212402  26.65165424346924 21.57882976531982 16.81930065155029  26.56629943847656 21.85462951660156 16.61284065246582  27.07784786278286 21.87995233330208 16.57176281102102  26.69247436523438 21.8675651550293 16.34924030303955  26.81864929199219 21.88050079345703 16.08563995361328  27.20402278954068 21.89288797172982 16.30816246159475  27.58939628708917 21.9052751500026 16.53068496957622  28.81110954284668 20.0088996887207 18.64575958251953  28.32651698828551 20.00487002104802 18.1005446506673  28.37131679297301 19.99059447020574 18.58668490182697  28.66567993164062 19.70270442962646 18.5048246383667  28.76630973815918 20.02317523956299 18.15961933135986  28.52025032043457 19.39650917053223 18.36388969421387  28.22588718176695 19.6843992111115 18.44574995767414  28.62088012695312 19.71697998046875 18.01868438720703  28.72150993347168 20.03745079040527 17.6734790802002  28.75428009033203 21.28623008728027 16.3873291015625  28.11878311619843 20.84046278394548 16.46229466990891  28.34152328953828 21.15528784192888 16.75251922206346  28.69145011901855 20.8136100769043 16.49044990539551  28.53153991699219 20.97140502929688 16.09710454940796  28.62862014770508 20.34099006652832 16.59357070922852  28.2786933182248 20.68266783155291 16.85564002589646  28.46870994567871 20.4987850189209 16.20022535324097  28.30879974365234 20.65657997131348 15.80687999725342  27.92876648874452 21.02434559657749 17.11770934256441  27.77475929260254 21.35948944091797 18.62207984924316  28.04505920410156 21.44101905822754 18.47823905944824  27.90745987896221 21.12406472245433 18.26189688680344  28.08437442779541 21.06921482086182 18.68672466278076  27.17103204323758 21.50715451437745 16.09022781011088  27.19472503662109 21.94321537017822 15.89132499694824  27.57080078125 22.00592994689941 15.6970100402832  27.54710778786649 21.56986909109865 15.89591285344584  27.58009853416958 21.95560254845101 16.11384750492971  27.55640554078607 21.51954169265024 16.31275031809235  27.52341479448298 21.13380823529788 16.09481566660848  27.93334331566372 21.70080270561654 16.16183735020559  27.92404556274414 21.75113010406494 15.74499988555908  28.27729034423828 21.49633026123047 15.79298973083496  27.90035256936063 21.31506924826417 15.94390269872172  27.17032051086426 21.31212043762207 15.49011993408203  27.65364751412381 21.09442906576906 15.74218293782694  27.42941197945584 20.86973386008058 15.76206275578959  27.34686765267362 21.22296433645997 15.79246780034526  27.47710037231445 21.18358516693115 15.43983507156372  27.25286483764648 20.95888996124268 15.45971488952637  27.33540916442871 20.60565948486328 15.4293098449707  27.55964469909668 20.83035469055176 15.40943002700806  27.78388023376465 21.05504989624023 15.38955020904541  27.68074035644531 20.18232917785645 16.02162933349609  27.80475342259492 20.60333738721697 16.56966933803025  28.1546802520752 20.26165962219238 16.3076000213623  27.99477005004883 20.41945457458496 15.91425466537476  27.67734050750732 21.53048992156982 15.54328012466431  27.37056064605713 21.65902519226074 15.59356498718262  27.55806720496031 20.31109484404607 18.5852505756551  27.44633483886719 20.38090515136719 19.01994037628174  27.81979167700621 20.04209955901189 18.96230002176105  28.0276068472943 20.33484991759343 18.71141024362385  27.91587448120117 20.40466022491455 19.14610004425049  27.70805931091309 20.11190986633301 19.3969898223877  27.13021192147244 21.21841912466798 16.56028815862162  27.33288776860322 21.16368780530779 17.07173499659959  27.75908138791684 21.46481037329005 16.82419715607032  27.72609064161375 21.07907691593768 16.60626250458645  28.21959674597594 19.99951990813298 18.93868036996662  28.3156795501709 20.36208057403564 19.12248039245605  28.10786437988281 20.0693302154541 19.37337017059326  28.50766944885254 20.0267505645752 19.34975051879883  28.78301048278809 20.77969932556152 18.20973014831543  28.24568524364727 20.4222805885432 17.85951689717942  28.27643551830548 20.79340485612132 18.12764243123704  28.3558884857663 20.90202246106951 17.66371974543992  28.75226020812988 20.4085750579834 17.94160461425781  28.3251382111081 20.53089819349138 17.3955942113823  27.84931352128369 20.91572799162931 17.58163202836153  27.84684944152832 19.66193008422852 17.82316970825195  27.83128991131085 20.38683537522533 17.52833250997239  27.80835499767559 20.23452023545482 17.9343622112053  28.2841796875 19.84969043731689 17.74832439422607  28.30711460113525 20.0020055770874 17.34229469299316  27.86978435516357 19.81424522399902 17.41714000701904  27.89271926879883 19.96656036376953 17.01111030578613  27.92180061340332 21.88845062255859 17.87310981750488  27.84752285466279 21.60548792280046 17.18914470271531  27.92528355107392 21.45639810956804 17.49540958003465  28.20878505706787 21.88695049285889 17.48462963104248  27.84403991699219 22.03754043579102 17.56684494018555  27.76627922058105 22.18663024902344 17.26058006286621  28.13102436065674 22.03604030609131 17.17836475372314  28.49576950073242 21.88545036315918 17.09614944458008  28.21226799473847 21.45489797986833 17.10692939357224  27.66678047180176 22.85799980163574 15.85369968414307  27.62808837944546 22.38163747581917 16.19219232685964  27.93939018249512 22.48933506011963 16.02772951126099  27.61879062652588 22.43196487426758 15.77535486221313  27.89140033721924 22.06330013275146 15.94938468933105  28.21199989318848 22.12067031860352 16.20175933837891  27.90069809013882 22.01297273430306 16.36622215397756  28.03058528900146 21.27569007873535 15.59126996994019  26.93843078613281 22.69149971008301 16.07792091369629  26.94124984741211 22.11316585540771 16.44657516479492  27.26391353661099 22.2983874300428 16.30430294163626  26.8785400390625 22.28600025177002 16.08178043365479  27.00114059448242 22.5186653137207 16.44271564483643  27.06385040283203 22.3458309173584 16.80751037597656  27.3266233449606 22.1255530336805 16.66909767277639  27.91074287877167 20.49545298017351 17.06440982417527  26.8150749206543 22.10023021697998 16.71017551422119  26.90042972564697 21.82443046569824 16.91663551330566  27.68553245306822 19.59640940398259 18.76318045388996  27.91274452209473 19.57934474945068 19.11740493774414  27.5738000869751 19.66621971130371 19.1978702545166  27.43954086303711 19.22052955627441 18.99875068664551  27.77848529815674 19.13365459442139 18.91828536987305  28.11742973327637 19.04677963256836 18.83782005310059  28.02447688818785 19.50953444212956 18.6827151371175  27.25461578369141 22.34871482849121 15.88746547698975  27.30260562896729 22.77474975585938 15.96581029891968  28.35726726294371 20.37599428862615 18.36867018472492  28.45335006713867 20.73855495452881 18.55247020721436  28.20860004425049 19.69309520721436 19.35688495635986  28.60840511322021 19.65051555633545 19.33326530456543  28.31254959106445 19.53676509857178 19.09378528594971  28.41328525543213 19.16053009033203 19.07730007171631  28.70914077758789 19.2742805480957 19.31678009033203  27.39363574981689 22.63684463500977 16.40017509460449  27.84884071350098 22.58218955993652 16.7224292755127  27.71911850029507 22.24373235496956 16.62655712254446  27.75781059265137 22.72009468078613 16.28806447982788  27.4563455581665 22.46401023864746 16.76496982574463  27.20385932922363 21.84384918212891 17.59983062744141  27.3966278081564 21.87456216606575 17.06525779850881  27.48506927490234 22.01523971557617 17.43020534515381  27.13385486602783 22.09484004974365 17.20367050170898  27.41506481170654 22.26623058319092 17.03404521942139  27.67783775383511 22.04595269951302 16.89563251622122  28.1718381887106 21.59575261864144 16.45900703556936  28.48313999176025 21.70345020294189 16.2945442199707  28.62502479553223 21.58584022521973 16.74173927307129  28.35388469696045 22.00306034088135 16.64895439147949  28.04258289391079 21.89536275658089 16.81341720707815  26.97043418884277 21.5734395980835 17.31279563903809  26.94034957885742 20.83044528961182 16.8795804977417  27.14369010925293 20.35786056518555 16.73340034484863  27.33355245186795 20.74583440024171 16.41410800572856  27.53622829899873 20.69110308088152 16.92555484370652  26.84913063049316 20.91643905639648 16.08332061767578  27.18627271248807 21.02512364584718 16.08906814214213  27.09226989746094 20.76104927062988 15.75631523132324  27.26493549346924 20.54938411712646 16.05247497558594  27.60207757546414 20.65806870657716 16.05822250005229  27.50807476043701 20.39399433135986 15.7254695892334  28.41403484344482 21.11035919189453 18.34398460388184  26.59354496002197 21.41227531433105 16.73669052124023  26.45008087158203 21.52152061462402 16.4476203
[...]
<PointData  Scalars="p_O2"> 
<DataArray  type="Float64"  Name="p_O2"  format="ascii">3.3202856342485838e+01  3.3198466632641974e+01  3.3198755734551582e+01  3.3208374710684517e+01  3.3217456871346222e+01  3.3206737801012132e+01  3.3201952808784945e+01  3.3216551448804040e+01  3.3198467245368860e+01  3.3197818075198427e+01  3.3197999451660912e+01  3.3198001049842809e+01  3.3198134253338658e+01  3.3198068688948624e+01  3.3197955405920332e+01  3.3199268355117610e+01  3.3196057126420328e+01  3.3202276885001957e+01  3.3197876447387301e+01  3.3201329113201858e+01  3.3195290233462501e+01  3.3201502574756319e+01  3.3204300974934689e+01  3.3191309953528759e+01  3.3193510524473282e+01  3.3188008545003783e+01  3.3193286197690284e+01  3.3200599459989164e+01  3.3200011114772394e+01  3.3199853632106539e+01  3.3196071798412873e+01  3.3195288653524820e+01  3.3198803309319473e+01  3.3199625029263437e+01  3.3198327763371893e+01  3.3194986607973682e+01  3.3199839754878049e+01  3.3201326756768026e+01  3.3200048677128059e+01  3.3199780285028091e+01  3.3200987962056693e+01  3.3200531190927720e+01  3.3199128853333974e+01  3.3199363690150079e+01  3.3199094109595521e+01  3.3202402604179511e+01  3.3201371688719654e+01  3.3199417053849501e+01  3.3197501902017429e+01  3.3198686437201140e+01  3.3198290716674990e+01  3.3210196466095837e+01  3.3199002671562013e+01  3.3194823561730217e+01  3.3196865485060577e+01  3.3199596553138718e+01  3.3208105997575501e+01  3.3200294224984006e+01  3.3200523954980341e+01  3.3206265354966177e+01  3.3189416052023567e+01  3.3200497769800229e+01  3.3200626916037628e+01  3.3198123244508139e+01  3.3200288962735129e+01  3.3199333560883595e+01  3.3201195352751348e+01  3.3196304748631235e+01  3.3195690241505048e+01  3.3200265229042735e+01  3.3196178991154909e+01  3.3198371830354844e+01  3.3200807252743367e+01  3.3198516320827480e+01  3.3202552868595227e+01  3.3202846302003337e+01  3.3193256623452463e+01  3.3183897172085281e+01  3.3194946657837413e+01  3.3198595405415780e+01  3.3200238953315285e+01  3.3191357201529108e+01  3.3204602463521340e+01  3.3201623974872810e+01  3.3202130637808445e+01  3.3201938158387335e+01  3.3199303382963897e+01  3.3203292529115579e+01  3.3203363310389484e+01  3.3219812873742903e+01  3.3205354861095408e+01  3.3206047709162426e+01  3.3201355435360583e+01  3.3197284306531017e+01  3.3198776521126213e+01  3.3196697775738819e+01  3.3196367979224419e+01  3.3196295973301361e+01  3.3200840576527384e+01  3.3199700872645970e+01  3.3195753345163091e+01  3.3197477861866183e+01  3.3196946326651769e+01  3.3203325431349796e+01  3.3205415702587345e+01  3.3201733938260752e+01  3.3197028867207230e+01  3.3200652429503528e+01  3.3199726884934464e+01  3.3196127076828205e+01  3.3188863105459042e+01  3.3192334399245652e+01  3.3196736433232608e+01  3.3199711617531563e+01  3.3198974556213876e+01  3.3199758925639394e+01  3.3200374423768814e+01  3.3188451896378965e+01  3.3178625660121455e+01  3.3205064619291363e+01  3.3191794080837319e+01  3.3203904514299133e+01  3.3197812694657138e+01  3.3195385029512828e+01  3.3174562361879666e+01  3.3190066819416046e+01  3.3151605210522817e+01  3.3193124143387664e+01  3.3198199073507460e+01  3.3198644999593867e+01  3.3197791741168054e+01  3.3171335437303824e+01  3.3194930553161001e+01  3.3197885437553104e+01  3.3201864487900068e+01  3.3199661281619491e+01  3.3200864508283750e+01  3.3203939420063918e+01  3.3208330236808941e+01  3.3202437771371393e+01  3.3158651941551042e+01  3.3173409929168962e+01  3.3197350279070285e+01  3.3208238104088004e+01  3.3202741549710701e+01  3.3214646393333560e+01  3.3207932673025951e+01  3.3234272189809772e+01  3.3200785043626816e+01  3.3200082686875710e+01  3.3197081337711616e+01  3.3196454842999650e+01  3.3202184988908719e+01  3.3206392691565540e+01  3.3194810657955095e+01  3.3196081271407934e+01  3.3192081511909819e+01  3.3180760547093243e+01  3.3180878156254416e+01  3.3201216947750687e+01  3.3204488688174138e+01  3.3198343765136023e+01  3.3199070501664366e+01  3.3197056658523344e+01  3.3200657604242039e+01  3.3196464180041701e+01  3.3202267553771449e+01  3.3201001209306028e+01  3.3199703549122908e+01  3.3198857250175486e+01  3.3200286832932761e+01  3.3198448382715753e+01  3.3199483080832714e+01  3.3201697969917767e+01  3.3197921175112931e+01  3.3203948720122312e+01  3.3204741988533698e+01  3.3212054449364778e+01  3.3198615066832623e+01  3.3200666870962436e+01  3.3187434204427525e+01  3.3191328929098596e+01  3.3199362591672866e+01  3.3200121380783777e+01  3.3196937624150181e+01  3.3201023967203938e+01  3.3196700697982678e+01  3.3199105835258479e+01  3.3184639243378086e+01  3.3208486178279564e+01  3.3203193999466045e+01  3.3204744707475832e+01  3.3189942486182510e+01  3.3190766763324866e+01  3.3198577761086533e+01  3.3197594847746132e+01  3.3198806991162307e+01  3.3196943652507017e+01  3.3202316991114230e+01  3.3200469051459969e+01  3.3195458679094308e+01  3.3198680131363048e+01  3.3194746285067062e+01  3.3197706609150195e+01  3.3197237413407777e+01  3.3199943864006684e+01  3.3197344647389137e+01  3.3200533193971538e+01  3.3200273178097220e+01  3.3198492981730062e+01  3.3191699730648324e+01  3.3199481268144716e+01  3.3203245641535894e+01  3.3208782769152215e+01  3.3205152848848677e+01  3.3199248452227970e+01  3.3200151944171395e+01  3.3197967529763751e+01  3.3201649383316685e+01  3.3208966905438025e+01  3.3190781586974396e+01  3.3195977835152817e+01  3.3191856669009255e+01  3.3199714079630745e+01  3.3194860213377837e+01  3.3194783485788300e+01  3.3209429165929819e+01  3.3207533635920583e+01  3.3220556932777285e+01  3.3206598613405184e+01  3.3213825267268490e+01  3.3230433249468398e+01  3.3205390324084398e+01  3.3199800199921846e+01  3.3212879800152066e+01  3.3220840829907516e+01  3.3200044869823891e+01  3.3199000673956846e+01  3.3202481813555949e+01  3.3202283641874978e+01  3.3197734624708971e+01  3.3202429115293839e+01  3.3197484721956450e+01  3.3193169189932881e+01  3.3199966833806911e+01  3.3192790617961968e+01  3.3195746088891411e+01  3.3202765425935787e+01  3.3199584854364296e+01  3.3195013423908449e+01  3.3205198021458671e+01  3.3186971445797361e+01  3.3198388707510460e+01  3.3196176321444717e+01  3.3197936944166962e+01  3.3192404188789659e+01  3.3202840712847888e+01  3.3209771406513894e+01  3.3199587437067997e+01  3.3203793384718665e+01  3.3201295802700905e+01  3.3199206532901442e+01  3.3198183613622199e+01  3.3197887632338002e+01  3.3203042041784180e+01  3.3198964680163037e+01  3.3203970446417756e+01  3.3191813278625190e+01  3.3191495520160643e+01  3.3203478882681665e+01  3.3206709345274660e+01  3.3209182681601689e+01  3.3215657210674976e+01  3.3215976141095844e+01  3.3205242716554423e+01  3.3195093623014685e+01  3.3195045120714568e+01  3.3193684654899720e+01  3.3205526581919642e+01  3.3198919514216684e+01  3.3190431377108403e+01  3.3201728713429716e+01  3.3197509752715924e+01  3.3200557428460201e+01  3.3195451125404738e+01  3.3204059236156887e+01  3.3204927455588326e+01  3.3203383437962358e+01  3.3203914450123676e+01  3.3198428076438418e+01  3.3201199744209021e+01  3.3198468660412708e+01  3.3195873591161913e+01  3.3196534389230685e+01  3.3193034136877387e+01  3.3183943501833596e+01  3.3200439072368127e+01  3.3193249836603279e+01  3.3197444705365371e+01  3.3198496244747346e+01  3.3189494417931108e+01  3.3198998643205158e+01  3.3198067196234447e+01  3.3195378535343103e+01  3.3193610817464489e+01  3.3187578444334392e+01  3.3194633109897573e+01  3.3196299622830587e+01  3.3199916781833537e+01  3.3194747978711767e+01  3.3198490456675898e+01  3.3204023855042962e+01  3.3200242909196824e+01  3.3199230965717888e+01  3.3188365296390657e+01  3.3193678738123168e+01  3.3203213229723694e+01  3.3203981612332058e+01  3.3210438322907279e+01  3.3198323008237779e+01  3.3204345902677545e+01  3.3207092019584060e+01  3.3190798503785238e+01  3.3187619551474597e+01  3.3196081106781989e+01  3.3197963281936332e+01  3.3196657453659533e+01  3.3202540328622696e+01  3.3200266091039182e+01  3.3199757139736242e+01  3.3188121761835490e+01  3.3192252582895527e+01  3.3196223173793676e+01  3.3199925654138418e+01  3.3206985660594164e+01  3.3188027505763451e+01  3.3200695893031025e+01  3.3180496899733683e+01  3.3193326154747830e+01  3.3197706926876457e+01  3.3216871127498777e+01  3.3189447059550041e+01  3.3204630388052180e+01  3.3207494434299385e+01  3.3202554033261599e+01  3.3175446004098561e+01  3.3161066379004957e+01  3.3182786965417556e+01  3.3187688980211391e+01  3.3082668232246021e+01  3.3154302425838814e+01  3.3231241908548704e+01  3.3249087515530739e+01  3.3199431199301408e+01  3.3199000437267344e+01  3.3312085379726263e+01  3.3128858837506506e+01  3.3368334273635639e+01  3.3181511724547192e+01  3.3195253320527350e+01  3.3205100052918660e+01  3.3204990256335790e+01  3.3208857172642901e+01  3.3203111768318358e+01  3.3200580573615362e+01  3.3202892910698345e+01  3.3209486364623309e+01  3.3201433555666007e+01  3.3201150180448948e+01  3.3203849802005259e+01  3.3203009209793414e+01  3.3201501982591374e+01  3.3210742536583354e+01  3.3200644381749157e+01  3.3192166945731636e+01  3.3201997990812238e+01  3.3207437759764382e+01  3.3212532182704074e+01  3.3203802607896499e+01  3.3206989572326108e+01  3.3221931955553487e+01  3.3226857511910758e+01  3.3206137268939955e+01  3.3236324791090794e+01  3.3216314885140221e+01  3.3204470695031745e+01  3.3209192329582550e+01  3.3212232197258373e+01  3.3218080675155697e+01  3.3208707363510918e+01  3.3232560290050515e+01  3.3215819102202154e+01  3.3196300377917183e+01  3.3212952557615282e+01  3.3214364238177403e+01  3.3209508081548400e+01  3.3201408312422458e+01  3.3206498438927476e+01  3.3196141767954977e+01  3.3206208004329774e+01  3.3201086044250069e+01  3.3200708831038945e+01  3.3203814803335369e+01  3.3195438097236419e+01  3.3198207434086932e+01  3.3203400966006747e+01  3.3204413528329120e+01  3.3202873400168151e+01  3.3203190404119965e+01  3.3205454497960737e+01  3.3203673507809619e+01  3.3207724955641076e+01  3.3205528208824425e+01  3.3208389906307254e+01  3.3205416560648992e+01  3.3204901770528963e+01  3.3196108694372029e+01  3.3189755654020445e+01  3.3189640408104935e+01  3.3193724104036207e+01  3.3223700916223947e+01  3.3201028093764535e+01  3.3206327187896463e+01  3.3204707073845292e+01  3.3194977076015036e+01  3.3188256175351086e+01  3.3196674795552987e+01  3.3191976552238565e+01  3.3200115549816211e+01  3.3196062617286557e+01  3.3193677726974158e+01  3.3193290826554119e+01  3.3193933248318437e+01  3.3190623953724163e+01  3.3191575229263933e+01  3.3197035269711037e+01  3.3200867848136333e+01  3.3196790701896830e+01  3.3211408007407563e+01  3.3203013049249229e+01  3.3197224448414843e+01  3.3202498393814032e+01  3.3211665834392164e+01  3.3208594952124699e+01  3.3205788493274667e+01  3.3200622939444919e+01  3.3205744759581862e+01  3.3206474257689315e+01  3.3204602156559069e+01  3.3210177636842516e+01  3.3206334489095802e+01  3.3206470559538857e+01  3.3204532062732774e+01  3.3207820932978926e+01  3.3214006714300716e+01  3.3203045175845141e+01  3.3198621992713534e+01  3.3196940017247535e+01  3.3202099370114645e+01  3.3202719741835722e+01  3.3192118691770759e+01  3.3200909005560980e+01  3.3199426359630166e+01  3.3201345677144516e+01  3.3201102010434418e+01  3.3198677659277308e+01  3.3203397380289864e+01  3.3204364415739747e+01  3.3187929791083157e+01  3.3194727841331932e+01  3.3198204567312864e+01  3.3200534519227723e+01  3.3205235912067614e+01  3.3199434192547905e+01  3.3203263395522107e+01  3.3197535500143779e+01  3.3217425464801188e+01  3.3209745238377032e+01  3.3224923689513403e+01  3.3182033148912247e+01  3.3168054856386540e+01  3.3169766317438970e+01  3.3197726832394913e+01  3.3204318597012659e+01  3.3202801174477344e+01  3.3202446409549033e+01  3.3208025042575294e+01  3.3197120662890747e+01  3.3202024772253807e+01  3.3199680686103228e+01  3.3198366857130409e+01  3.3199082621983607e+01  3.3200251380297843e+01  3.3198310388856477e+01  3.3204555408552594e+01  3.3193831544062867e+01  3.3193461746506991e+01  3.3195848523458324e+01  3.3193646570668584e+01  3.3191005307122317e+01  3.3198548443950259e+01  3.3203548698663838e+01  3.3199592601939486e+01  3.3192522478802175e+01  3.3189865512173959e+01  3.3198079109300295e+01  3.3195367121959926e+01  3.3202733438241488e+01  3.3198925595882301e+01  3.3193500748085690e+01  3.3199324548572555e+01  3.3195319084303030e+01  3.3201274210840786e+01  3.3200688654258073e+01  3.3202924304835378e+01  3.3199473075431243e+01  3.3195467504022773e+01  3.3200847086438124e+01  3.3205112509397757e+01  3.3201455256947504e+01  3.3198090492238833e+01  3.3199002314662444e+01  3.3198898667814618e+01  3.3204623945689661e+01  3.3196331869526091e+01  3.3202507407554116e+01  3.3204435440778433e+01  3.3197821155391637e+01  3.3204711427120870e+01  3.3203259654399154e+01  3.3209402558777263e+01  3.3209631630592526e+01  3.3198275719151574e+01  3.3214539381310267e+01  3.3196798313644244e+01  3.3204042440148314e+01  3.3199273445733375e+01  3.3204366965392168e+01  3.3199319278859079e+01  3.3197089882188251e+01  3.3195781410361079e+01  3.3195859239826277e+01  3.3196941201022327e+01  3.3202617279233444e+01  3.3194149768630361e+01  3.3194682923888514e+01  3.3172901194913024e+01  3.3183807168017381e+01  3.3193082926831153e+01  3.3204328585669053e+01  3.3180328402567405e+01  3.3194812220016360e+01  3.3206223065457920e+01  3.3212308124140428e+01  3.3204498293225633e+01  3.3198297351275805e+01  3.3199737840990991e+01  3.3204359967872271e+01  3.3203544054219527e+01  3.3205390736489321e+01  3.3208632913826740e+01  3.3195172779389239e+01  3.3211980928088948e+01  3.3172015254953621e+01  3.3160216885213174e+01  3.3160213547925167e+01  3.3212049868580813e+01  3.3197246587559576e+01  3.3203321622740276e+01  3.3200907135996779e+01  3.3217770660999172e+01  3.3188848460282969e+01  3.3201315224422572e+01  3.3222358588468111e+01  3.3210548392421650e+01  3.3201668147028656e+01  3.3210268642224797e+01  3.3204605380999396e+01  3.3203747304247749e+01  3.3205844383615357e+01  3.3204744104676678e+01  3.3198520422007732e+01  3.3195111526551877e+01  3.3203232205239360e+01  3.3204071961835304e+01  3.3201661721177217e+01  3.3201544276812385e+01  3.3212004643141171e+01  3.3213484476038687e+01  3.3227263208435062e+01  3.3221235381929304e+01  3.3204285059020684e+01  3.3208808794415901e+01  3.3205897706119863e+01  3.3209983028844505e+01  3.3205463328110149e+01  3.3210710633950640e+01  3.3202154250409556e+01  3.3203426745803483e+01  3.3208711119731042e+01  3.3210478133688774e+01  3.3192198240389459e+01  3.3190554460494873e+01  3.3190496354329937e+01  3.3193761728898558e+01  3.3207048475775188e+01  3.3192964918183222e+01  3.3195332394127334e+01  3.3191786731125546e+01  3.3193386189204645e+01  3.3198999666179716e+01  3.3188716985656562e+01  3.3197608366664682e+01  3.3210719520410166e+01  3.3223563340003473e+01  3.3224732637200312e+01  3.3202983269606349e+01  3.3209406235532647e+01  3.3203228395619199e+01  3.3194433355907435e+01  3.3216838248372717e+01  3.3213840316521775e+01  3.3196796706746134e+01  3.3205049273868454e+01  3.3207126674254589e+01  3.3204485535762238e+01  3.3202571670272754e+01  3.3209191619886170e+01  3.3198996573440809e+01  3.3200596764988290e+01  3.3202148332820940e+01  3.3198600843255228e+01  3.3198422227494177e+01  3.3198456167820794e+01  3.3203767538113581e+01  3.3193620616147925e+01  3.3197162554158183e+01  3.3203261725132492e+01  3.3205223161965883e+01  3.3199486175368769e+01  3.3204016725054501e+01  3.3197453026655865e+01  3.3203946394809442e+01  3.3206941913221925e+01  3.3200269524427895e+01  3.3209514336218675e+01  3.3205026013125192e+01  3.3198473601068891e+01  3.3206402640962686e+01  3.3208270584572432e+01  3.3216939730899085e+01  3.3207735097978031e+01  3.3211588209322862e+01  3.3208158334786383e+01  3.3219289811570256e+01  3.3219154815163883e+01  3.3201314943393257e+01  3.3198602719378009e+01  3.3204385321552543e+01  3.3200747785725554e+01  3.3202807656869531e+01  3.3205428094224608e+01  3.3200894076631599e+01  3.3206941403473138e+01  3.3198234224500915e+01  3.3201929008281795e+01  3.3205555903038295e+01  3.3194552799124004e+01  3.3201721683040880e+01  3.3193993883159315e+01  3.3200686974785718e+01  3.3196509153648485e+01  3.3202939406568198e+01  3.3198692955219038e+01  3.3195614101025647e+01  3.3207086710515128e+01  3.3190110542594233e+01  3.3188534044132780e+01  3.3198837625844497e+01  3.3190299497735822e+01  3.3197802444184667e+01  3.3206163180543321e+01  3.3193038883083538e+01  3.3215869800158529e+01  3.3194227494455760e+01  3.3189658839784165e+01  3.3185605662191250e+01  3.3183632061187737e+01  3.3196707169155722e+01  3.3189239226801284e+01  3.3187458432760565e+01  3.3192778056376511e+01  3.3194809312598579e+01  3.3201028423800921e+01  3.3200353929839530e+01  3.3199492921859786e+01  3.3206635725028036e+01  3.3194616042171297e+01  3.3200466231193865e+01  3.3198576904662211e+01  3.3196084521798895e+01  3.3204254858762418e+01  3.3198812413954933e+01  3.3203522012598256e+01  3.3205737259104410e+01  3.3194787517838257e+01  3.3197722772197793e+01  3.3200547284818974e+01  3.3195948957072133e+01  3.3199464640777165e+01  3.3200629410541794e+01  3.3204358087443275e+01  3.3198458028309652e+01  3.3204464718915695e+01  3.3194963441209225e+01  3.3204217408773964e+01  3.3209027969221857e+01  3.3208123292320423e+01  3.3206131908375085e+01  3.3206384560000984e+01  3.3193378534019303e+01  3.3204183741736408e+01  3.3202733104481318e+01  3.3198658001180625e+01  3.3193829920706932e+01  3.3200733167737965e+01  3.3221539122793388e+01  3.3202449384415999e+01  3.3191569898315635e+01  3.3199496614377644e+01  3.3194526790970158e+01  3.3198544641219158e+01  3.3201401825534397e+01  3.3195811286576905e+01  3.3198539272483387e+01  3.3193358766957424e+01  3.3198034632455673e+01  3.3199682188836327e+01  3.3197350233874111e+01  3.3197094632459589e+01  3.3201584689049845e+01  3.3197600077176631e+01  3.3192262423318333e+01  3.3196271286460686e+01  3.3205575987791740e+01  3.3216307259849756e+01  3.3200845131260891e+01  3.3204353800767009e+01  3.3194345968054357e+01  3.3197795610369205e+01  3.3182167166900157e+01  3.3197932738204862e+01  3.3179759024458036e+01  3.3184986502937882e+01  3.3194278856073119e+01  3.3194319780891796e+01  3.3184686623780529e+01  3.3194570701210168e+01  3.3200880364745764e+01  3.3199736470914203e+01  3.3210411785467620e+01  3.3205186694600137e+01  3.3202606041916937e+01  3.3208570680544547e+01  3.3205539672220617e+01  3.3198572426283299e+01  3.3193108814980114e+01  3.3193351609112717e+01  3.3201552459481036e+01  3.3198089268907410e+01  3.3194416722120025e+01  3.3194366119152818e+01  3.3185536824990024e+01  3.3197940613459863e+01  3.3187286448770166e+01  3.3171439530181125e+01  3.3198318649731469e+01  3.3207932306148301e+01  3.3197659022971429e+01  3.3200745640969586e+01  3.3181939633360116e+01  3.3185454167509505e+01  3.3203189817320165e+01  3.3201317145181008e+01  3.3198686005346090e+01  3.3194382124428962e+01  3.3207539660680951e+01  3.3210845647217972e+01  3.3199927762027478e+01  3.3210014035890858e+01  3.3197876736569192e+01  3.3197703120603911e+01  3.3204977282852205e+01  3.3196222429505767e+01  3.3201570807879712e+01  3.3196084448763131e+01  3.3200958445647402e+01  3.3201506848159951e+01  3.3218716452759139e+01  3.3217485893447957e+01  3.3192963541769863e+01  3.3207578248306135e+01  3.3179628863289352e+01  3.3158487364613869e+01  3.3205701120387566e+01  3.3199558637265412e+01  3.3216064940971691e+01  3.3206913859262947e+01  3.3202755151136842e+01  3.3196303115578111e+01  3.3200513302070540e+01  3.3193853967960294e+01  3.3194820977808412e+01  3.3205828524523653e+01  3.3205822513520701e+01  3.3201810146980002e+01  3.3198170782493037e+01  3.3210264718922069e+01  3.3204478909260132e+01  3.3206913897145277e+01  3.3205181845362311e+01  3.3202010575253503e+01  3.3198828322523731e+01  3.3211320003573434e+01  3.3197301982862768e+01  3.3203262081900206e+01  3.3200743488371927e+01  3.3204618491099140e+01  3.3202403957239497e+01  3.3206218448030192e