<?xml version="1.0"?>
<VTKFile type="UnstructuredGrid"  version="0.1"  >
<UnstructuredGrid>
<Piece  NumberOfPoints="10714" NumberOfCells="43540">
<Points>
<DataArray  type="Float64"  NumberOfComponents="3"  format="ascii">37.49216068403028 12.21648981040125 8.095694586986866  38.69738327303237 13.23822965441951 8.32691582318477  37.85860307693361 13.34811827491466 7.325810020631831  37.95977437383005 12.28354938211154 6.998117904514942  36.79878997802734 9.262807846069336 1.688738942146301  37.71601104736328 8.986710548400879 1.475877046585083  36.92537548696308 9.680748230313407 1.11326724399744  37.71846697675683 9.975918589153887 1.642675675665137  39.01948928833008 10.41880989074707 4.076076984405518  39.89416122436523 10.55445957183838 3.09207010269165  38.60103491872403 10.40396716201348 3.170662717759796  39.22837391125374 11.01302194511639 2.956748844384833  33.30633163452148 21.30986022949219 2.482315063476562  33.97246932983398 20.60836982727051 2.805136919021606  34.55665605447114 21.69606344716639 3.303952122716239  33.56709023005264 21.1158705144635 3.419158898785183  34.94326019287109 10.70890045166016 11.27241992950439  34.88917922973633 10.00642967224121 10.7487096786499  35.81557831663489 9.612654936079863 10.73680525499108  35.20242796124673 9.811945992018693 11.90035416830367  38.53730010986328 17.822509765625 6.394937992095947  38.14068984985352 17.92959976196289 5.671009063720703  38.01125214743581 18.65569125556476 6.30765730975271  37.77624126086449 17.47761647868599 6.649381574429477  30.15699005126953 6.171529769897461 1.042019009590149  29.71379677277519 7.036829282942218 1.601473144800597  30.66994496568236 6.857468284480124 0.8470039064076924  29.7914330287247 7.427235814350977 0.7771189500792854  35.14735463582582 19.25467770425868 8.836748956366401  36.18706447945925 18.22284776024765 10.03073471096375  34.74067797813256 18.97623647280767 10.2585980605128  34.84428511463472 17.76768588240506 9.287543329036389  35.53961181640625 4.073735237121582 7.413384914398193  35.46606826782227 4.49711799621582 6.799996852874756  34.95781993521722 5.099047491174808 7.949297284878683  34.38180860518791 3.910243316789603 7.366529112726931  37.81230799124743 17.61735888698732 2.590572037657776  37.35671103640277 17.72320200760723 0.9011125007477829  37.3792253498674 16.4286698381808 1.499936804283382  36.7329461664926 17.94403928536989 1.500892701696348  34.74761962890625 17.74810028076172 2.723489999771118  35.12316408715323 17.08114685410702 3.143560375530884  34.10531669061659 16.77841197789907 3.167351811680009  34.04207229608372 17.60073405107889 3.514044876671245  32.86294174194336 19.51552963256836 3.073261976242065  33.76773834228516 19.80286026000977 3.029623031616211  33.56578826904297 18.94057083129883 3.028676986694336  33.11169596217979 19.98944222727051 3.940632093918834  35.84092518447877 11.16655659155479 12.30099509291965  35.67516086543636 12.3114326509223 12.07023701696516  36.17136861878267 12.19424790042177 11.06423916821011  37.42203263784408 12.01340904004444 11.29749816428754  36.35868729869061 19.73597852706065 6.661378070023307  37.04449972744182 19.30790250403132 8.907878929114716  36.74509316120012 18.25556357431419 6.843193508910413  35.93160701513679 19.95286922238614 8.02532554465607  37.3685302734375 22.8817195892334 2.189084053039551  38.09925842285156 22.49547004699707 1.941405057907104  36.96909396594347 22.01133084875413 1.29430516362121  37.46002340767094 21.43680558450563 2.185633296018325  30.69807052612305 23.24926948547363 0.6441900134086609  31.20569038391113 23.95004081726074 0.1048400029540062  31.66411018371582 23.35832023620605 0.7113509774208069  31.22906115201452 24.40707403224135 1.222138036314864  31.83727073669434 5.94587516784668 9.903904914855957  31.10948102845531 5.533461568044419 9.594917103120412  31.67558941695626 4.595054054366163 10.49848689304597  31.92631978711043 5.239517382691608 9.112388835744614  36.74039077758789 10.16604995727539 0.1048400029540062  36.99175071716309 9.649038791656494 0.3946195058524609  36.28715037048399 9.990343584102757 0.8970269887632627  37.4044138188775 10.06997001839966 0.7171075193926539  29.75470075791016 8.598431516861204 1.322980872051198  30.57824027071799 9.241049602865463 2.31605935943282  29.77589532703487 9.124025703833807 2.831230960188823  29.55605760038988 8.031728934037359 2.345714080850227  39.89416122436523 19.95080947875977 7.427981853485107  39.89416122436523 19.30982971191406 7.661084175109863  39.89416122436523 19.24501037597656 6.869744777679443  39.12824922706156 19.02043393067358 7.465280553545149  34.21928829129851 12.64002394638204 1.355772822332426  33.99877791127566 12.54513146239713 2.773908798326214  34.05140386955567 13.80502304528099 2.06828732344374  35.28786389598474 13.50991225903176 1.976995995109223  35.29422912211865 13.2232571463952 13.2240134562381  36.10445750119688 14.44533092148826 13.22265150907445  35.90715834933867 13.66303893397257 12.2621358510329  36.35644030360353 12.69775403906344 13.34873896257793  38.59587860107422 9.887117385864258 7.719407081604004  38.29071356010524 10.0251981553505 8.492494168682166  37.62128151859026 10.43807904907475 7.65298686687172  37.75564727633122 9.617798541675656 8.27790339306684  36.82065527882757 14.70724381072298 11.77208122874694  36.60916923886442 15.80571234311839 11.29551360317229  35.30417556340569 14.48093984262399 10.83470478934141  35.95611925010207 15.19698890169278 10.21303227924096  36.99766550670613 16.98397214550143 8.303000999241032  35.66166822584167 15.90564752102694 9.138545816868195  37.0748764404267 16.88980440407511 10.13790325014983  37.28687870978941 15.58788215386317 9.721358731507552  36.8985710144043 13.49016952514648 14.60649967193604  36.06623001083057 13.7545789881111 14.05693112003537  37.11127519122999 13.86406017401079 13.22921391798275  38.49338912963867 12.95320987701416 5.418471813201904  39.13330841064453 12.95938014984131 5.968968868255615  39.00342178344727 12.22842025756836 5.545782089233398  38.33408161465507 12.86150438844792 6.149588485100842  36.33905029296875 9.754186630249023 2.356865882873535  37.25259769079187 10.4354640799331 2.315412462175406  36.33722625126077 10.87220042453551 2.511220067825584  35.94468986185522 10.15631268628428 1.863765058453845  33.66947937011719 3.937901020050049 4.193717002868652  34.47209930419922 4.106895923614502 4.121044158935547  34.16408529093161 5.008572861246223 4.551825276298236  33.88085882282325 4.771750345473817 3.675702486371863  35.06922912597656 4.482101917266846 5.859911918640137  34.35946183973562 4.881538621823403 6.732290227010475  33.97947702030058 4.590762946449053 5.48299349233029  34.38749574913892 5.62422518180948 5.610584982286765  32.71181704407387 6.344657647902548 6.532548241273835  31.6462482529892 5.645432854769825 6.246909816883468  33.14399408271091 5.144504765531794 6.500719865242822  32.54661759526879 4.910537365695279 5.572672323201529  34.95782089233398 4.765946865081787 4.135313987731934  34.99605941772461 5.341097831726074 3.537661075592041  34.79978942871094 4.415253162384033 3.320770978927612  39.89416122436523 13.85678958892822 11.46578979492188  39.89416122436523 13.12458992004395 11.63451957702637  39.89416122436523 13.04782962799072 10.80978965759277  39.43104536594193 13.06779252613901 10.90475162058492  30.50325965881348 5.991970062255859 2.06486701965332  31.05024909973145 5.902554988861084 1.061890006065369  31.43254124215738 6.474650931828301 0.9601109313156658  28.40604372988198 4.968822261807485 9.447062505814801  29.04106673268116 3.464235671851138 9.705702695975935  27.75182867431703 3.943738120852379 10.63905103944377  29.40119288621412 4.792960989102473 10.55847248369121  39.13047027587891 15.04164028167725 12.80552005767822  38.77210394611606 14.12807620947834 12.40352318289377  38.10708983553855 15.27489093681445 12.30356237926225  38.89178891771952 15.20068180021955 11.59709097399534  34.87004852294922 23.99275970458984 3.689127922058105  35.21757125854492 23.91720962524414 2.856697082519531  34.80534432292267 23.124486277421 2.555614125753421  34.23331588211873 23.4225875795997 3.530246185003485  30.9451904296875 9.143291473388672 5.195538997650146  31.79793930053711 9.565357208251953 5.358193874359131  31.49744229905025 8.186325792692704 5.260215761252667  31.95251649416979 9.389863271609016 4.490038319835433  33.41685104370117 17.03499031066895 6.937251091003418  32.98862075805664 16.29446983337402 6.517088890075684  33.69499969482422 16.18424987792969 7.202981948852539  34.08090944035913 16.41319741977486 5.953547990637835  37.0293486401608 19.25847480897226 5.636638718304585  35.20365255686753 19.97853859755638 5.327278236557073  36.14631990422436 20.91001551036878 5.920605655274835  29.22979057633018 3.223422803305376 11.16638460034642  28.95392779567597 2.45059828091901 9.808669991902116  28.695063285511 1.872274530517871 10.84809779485584  29.62687076449561 2.182457018336561 10.25995628285873  39.06002044677734 9.802163124084473 3.143800973892212  38.40341186523438 9.680472373962402 3.127752065658569  38.49246978759766 9.276086807250977 2.437313079833984  38.69223335830806 10.51119106624153 2.27453237530703  34.17594875092542 15.12032090524468 12.77623294834007  35.4706155596364 15.03985646780694 11.97278209767646  35.40405694678407 15.23963949950818 13.38676189266111  34.94408553450796 14.18695364509775 12.89521663844785  32.74834060668945 8.58505916595459 0.1048400029540062  32.51227951049805 7.380088806152344 0.1048400029540062  33.20288848876953 7.580080986022949 0.1048400029540062  33.22601564602039 7.922355512479454 0.9734454416560575  35.76331263781154 12.22741456114685 2.174857605397884  35.01956384697406 11.28553497736429 2.406801043478785  32.17095947265625 8.187406539916992 7.709639072418213  32.13117980957031 8.880153656005859 7.141928195953369  32.22360253949989 7.987175412869323 6.327768485600236  32.73443747617738 8.653166103634874 6.749271413088104  31.28591918945312 21.
[...]
<PointData  Scalars="p"> 
<DataArray  type="Float64"  Name="p"  format="ascii">8.0112294225412715e+00  8.0056311199070525e+00  8.0094827482176338e+00  8.0107341690187859e+00  8.0176627147279831e+00  8.0143248840535772e+00  8.0173166998977585e+00  8.0143583860209322e+00  8.0120578849146273e+00  8.0000000000000000e+00  8.0111679782582286e+00  8.0075354776719738e+00  8.0234357072977307e+00  8.0199501769638051e+00  8.0195377222881792e+00  8.0220449041892135e+00  8.0231422344204599e+00  8.0232715483216346e+00  8.0220346337403363e+00  8.0259110862763130e+00  8.0073170355419734e+00  8.0089535827394407e+00  8.0078636268714085e+00  8.0088220710684865e+00  8.0490816248238009e+00  8.0513590392511336e+00  8.0474337198282697e+00  8.0507456253052556e+00  8.0126794321396790e+00  8.0118158086003586e+00  8.0138783247456349e+00  8.0131414391780034e+00  8.0409098229269258e+00  8.0402680871531995e+00  8.0394807408017428e+00  8.0423527368616359e+00  8.0085343840193861e+00  8.0089427461023650e+00  8.0097666613066494e+00  8.0100631584668545e+00  8.0146210050839493e+00  8.0142279552918581e+00  8.0161348585496057e+00  8.0166203720316496e+00  8.0221180194155970e+00  8.0194470043055741e+00  8.0189264403673466e+00  8.0219829252755517e+00  8.0223690115578776e+00  8.0204218584315026e+00  8.0166756100832401e+00  8.0131309082254916e+00  8.0113643811694253e+00  8.0092512964025442e+00  8.0104403964813979e+00  8.0116468504366267e+00  8.0130839703581103e+00  8.0107480200809675e+00  8.0129113153614071e+00  8.0110306230639647e+00  8.0414439261801807e+00  8.0383400697756269e+00  8.0358553524590679e+00  8.0373977599633530e+00  8.0490013436526162e+00  8.0513222876704571e+00  8.0499998247089355e+00  8.0479796955120353e+00  8.0178878676374801e+00  8.0171367682375667e+00  8.0198344689127730e+00  8.0154842202927234e+00  8.0509784323397415e+00  8.0466932748285576e+00  8.0503864941137611e+00  8.0518926207209667e+00  8.0000000000000000e+00  8.0000000000000000e+00  8.0000000000000000e+00  8.0033315502749982e+00  8.0211797378411536e+00  8.0215114832173882e+00  8.0184460338746550e+00  8.0170918244923399e+00  8.0231107418364278e+00  8.0187615376214119e+00  8.0181964808112145e+00  8.0213195645860687e+00  8.0120449502293933e+00  8.0117652401120711e+00  8.0147412017431900e+00  8.0153931147256738e+00  8.0135546868639871e+00  8.0127439514231860e+00  8.0155692646945536e+00  8.0129320291974775e+00  8.0095491183803826e+00  8.0122738295111073e+00  8.0100448940459259e+00  8.0093726544846024e+00  8.0222124441024221e+00  8.0223725421393084e+00  8.0166597425203889e+00  8.0114854866849896e+00  8.0079482963681503e+00  8.0105598286802593e+00  8.0102392870347838e+00  8.0199828907761930e+00  8.0158286257157219e+00  8.0189423617867615e+00  8.0213383260575526e+00  8.0419156263786622e+00  8.0414450450842168e+00  8.0411654341577705e+00  8.0415231291322975e+00  8.0408093060458263e+00  8.0409789682092665e+00  8.0417204805826401e+00  8.0399284233435999e+00  8.0426492879920879e+00  8.0464594068295749e+00  8.0428629056950580e+00  8.0438020319636987e+00  8.0409959440080510e+00  8.0407875747553597e+00  8.0412945799168529e+00  8.0000000000000000e+00  7.9999999999999991e+00  8.0000000000000000e+00  8.0025249162579453e+00  8.0486098720955628e+00  8.0458217611167964e+00  8.0450109286517169e+00  8.0592779137701793e+00  8.0574601691677827e+00  8.0598642180447051e+00  8.0564909656998065e+00  8.0076337593116858e+00  8.0081652190987427e+00  8.0100270010758461e+00  8.0057803063759732e+00  8.0218506974579551e+00  8.0210534795158406e+00  8.0213543851810112e+00  8.0231445628305345e+00  8.0441763232575578e+00  8.0391186660978864e+00  8.0437295250704341e+00  8.0392334125295477e+00  8.0155212375700486e+00  8.0161689207039117e+00  8.0146033827764303e+00  8.0153422749119532e+00  8.0103149858620490e+00  8.0149619011679185e+00  8.0127724820198765e+00  8.0565965888371878e+00  8.0578999459899734e+00  8.0580155074948774e+00  8.0561264524091847e+00  8.0104006250189972e+00  8.0120253170292663e+00  8.0117291514789635e+00  8.0103313015240474e+00  8.0204313054559115e+00  8.0168164580421131e+00  8.0193859946764210e+00  8.0211730036370330e+00  8.0392964784623331e+00  8.0418847397172115e+00  8.0401043659948908e+00  8.0393136457292727e+00  8.0183594331576185e+00  8.0226535706210758e+00  8.0414243222305171e+00  8.0396460634567841e+00  8.0414133064397326e+00  8.0378539837803036e+00  8.0299067102560411e+00  8.0245136139834301e+00  8.0291673463185003e+00  8.0276984095478987e+00  8.0475540288923657e+00  8.0502476139292831e+00  8.0148640842983703e+00  8.0157907971846836e+00  8.0154129049501304e+00  8.0288527049231231e+00  8.0284549777746523e+00  8.0291492016671953e+00  8.0307814111711568e+00  8.0180745981494628e+00  8.0198244861947821e+00  8.0217291617934432e+00  8.0055702607576471e+00  8.0000000000000000e+00  8.0044319819946708e+00  8.0062061051908202e+00  8.0465012480257858e+00  8.0435959573802620e+00  8.0424976604074025e+00  8.0467333302584532e+00  8.0317361412311090e+00  8.0320522437224984e+00  8.0375485171495065e+00  8.0326084332381118e+00  8.0599906519519795e+00  8.0590628399679698e+00  8.0614308994248010e+00  8.0483938558055605e+00  8.0543313001924126e+00  8.0534880760786400e+00  8.0512079352010222e+00  8.0633818963771535e+00  8.0605694203754723e+00  8.0592131966821903e+00  8.0171794499662496e+00  8.0150222196088681e+00  8.0146760258009060e+00  8.0164742914131875e+00  8.0159524790692220e+00  8.0164239196977896e+00  8.0177726892899255e+00  8.0146576158509415e+00  8.0246559632628500e+00  8.0249073272820262e+00  8.0218222440857918e+00  8.0219183681430835e+00  8.0416418333654480e+00  8.0414901004186810e+00  8.0414601033337121e+00  8.0414184898260057e+00  8.0112382083090274e+00  8.0110632747176318e+00  8.0146578075609458e+00  8.0114795995091104e+00  8.0500330933142816e+00  8.0540565699760460e+00  8.0528444940981156e+00  8.0311368796003606e+00  8.0294688880535805e+00  8.0342701368570513e+00  8.0294596390663315e+00  8.0083729621416033e+00  8.0083591383218451e+00  8.0071087216358769e+00  8.0071632695113824e+00  8.0473460128896992e+00  8.0448384668987671e+00  8.0497445476262932e+00  8.0156639268366980e+00  8.0079519822212202e+00  8.0081169934328447e+00  8.0639241894415665e+00  8.0614916322970682e+00  8.0418396633011255e+00  8.0442959563520589e+00  8.0456106160455487e+00  8.0434662872611344e+00  8.0156248713383000e+00  8.0164266565184796e+00  8.0132758043996031e+00  8.0136442409437034e+00  8.0302000414948989e+00  8.0318636104638017e+00  8.0314575616357686e+00  8.0317767834205522e+00  8.0000000000000000e+00  8.0095354020059890e+00  7.9999999999999991e+00  8.0110358506458699e+00  8.0581184965318275e+00  8.0568252090906167e+00  8.0213083271734487e+00  8.0195494962703240e+00  8.0219154013816638e+00  8.0197123277571585e+00  8.0256024903944034e+00  8.0228816226578008e+00  8.0243977658654178e+00  8.0261370848120457e+00  8.0134036685187926e+00  8.0150056363849220e+00  8.0155079110594585e+00  8.0335153894957099e+00  8.0330199289622080e+00  8.0359275543799935e+00  8.0317705964449377e+00  8.0210539402379997e+00  8.0188806811704172e+00  8.0191491080495041e+00  8.0186190833306643e+00  8.0303929332435455e+00  8.0317125187478720e+00  8.0291526132816955e+00  8.0303657318150954e+00  7.9999999999999991e+00  8.0000000000000000e+00  8.0000000000000018e+00  8.0059739491629305e+00  8.0552467368884688e+00  8.0545674161411824e+00  8.0000000000000000e+00  8.0000000000000000e+00  8.0000000000000000e+00  8.0039163896940071e+00  8.0480456548904389e+00  8.0454823686060131e+00  8.0423608721771913e+00  8.0498466137260927e+00  8.0298814262342209e+00  8.0279758151709473e+00  8.0322432679753941e+00  8.0317307468408714e+00  8.0143816913126269e+00  8.0107956939127742e+00  8.0128266742185126e+00  8.0106576401482332e+00  8.0557753147432347e+00  8.0545553073009533e+00  8.0513379442649473e+00  8.0536825222122648e+00  8.0131688602027165e+00  8.0106211746082980e+00  8.0122009515852888e+00  8.0114415671827182e+00  8.0216686654272369e+00  8.0189940500934878e+00  8.0204069877842343e+00  8.0201090531194499e+00  8.0444642498255341e+00  8.0431242641682097e+00  8.0529947050533188e+00  8.0499284330016589e+00  8.0173353585448321e+00  8.0179864625021278e+00  8.0156307966938556e+00  8.0182857008471036e+00  8.0136384246256096e+00  8.0153090781984240e+00  8.0144038114902845e+00  8.0135438881484493e+00  8.0268405763549033e+00  8.0252793619067049e+00  8.0280749350058560e+00  8.0290650275071602e+00  8.0200261436580025e+00  8.0224702334325020e+00  8.0214928693526257e+00  8.0227653913104859e+00  8.0425985512554377e+00  8.0454702086567060e+00  8.0375845823089218e+00  8.0393371904305120e+00  8.0335085033699887e+00  8.0319799032685353e+00  8.0313795255910900e+00  8.0340741672690044e+00  8.0413997303697045e+00  8.0415827403420135e+00  8.0415037096350108e+00  8.0415616409677959e+00  8.0332821038704569e+00  8.0352236377058350e+00  8.0334481236026747e+00  8.0325364856305193e+00  8.0434872789722434e+00  8.0492192283082762e+00  8.0442004017454849e+00  8.0416884101570592e+00  8.0315611278682368e+00  8.0288615068864431e+00  8.0210766598052921e+00  8.0202224638889845e+00  8.0238778548059972e+00  8.0209167580485676e+00  8.0247615712514797e+00  8.0202624924590982e+00  8.0186672963534242e+00  8.0208998574200105e+00  8.0184247534172872e+00  8.0123114486150442e+00  8.0142037390177059e+00  8.0161631757118865e+00  8.0131672412977704e+00  8.0137006928984071e+00  8.0113540386746944e+00  8.0134732496506409e+00  8.0198093602452332e+00  8.0178542639311168e+00  8.0279651610218536e+00  8.0321505707832657e+00  8.0327577407757271e+00  8.0548478919054496e+00  8.0545583154705547e+00  8.0521855601663308e+00  8.0533918904014961e+00  8.0166663752189304e+00  8.0166587873900212e+00  8.0316279191361080e+00  8.0349735690912869e+00  8.0312204271450724e+00  8.0069629045146744e+00  8.0085241507989640e+00  8.0066175566651250e+00  8.0079336926208402e+00  8.0404454323230876e+00  8.0474371047049011e+00  8.0455005769562522e+00  8.0418617365523808e+00  8.0087391288950940e+00  8.0056701088527635e+00  8.0094013125593637e+00  8.0181815085634529e+00  8.0176054398534227e+00  8.0177050241665029e+00  8.0175045333310351e+00  8.0332438044943952e+00  8.0307402533566190e+00  8.0311665776853527e+00  8.0337136337541537e+00  8.0167500668111362e+00  8.0127628141176483e+00  8.0127205979765002e+00  8.0126840931660031e+00  8.0118890198668637e+00  8.0130751648631389e+00  8.0154753202093598e+00  8.0135947367705036e+00  8.0171185141433714e+00  8.0287581753660504e+00  8.0250930247605385e+00  8.0266282908341431e+00  8.0259770726001687e+00  8.0240353372447437e+00  8.0265044720190275e+00  8.0223431353454480e+00  8.0216607964476676e+00  8.0123270676852343e+00  8.0120251442655768e+00  8.0125604147736382e+00  8.0125700375812929e+00  8.0124547714189855e+00  8.0106993047039516e+00  8.0109598651648053e+00  8.0000000000000018e+00  7.9999999999999991e+00  8.0042305116105510e+00  8.0028700522305094e+00  8.0206299287935234e+00  8.0206411572244480e+00  8.0193028398255155e+00  8.0162706691258432e+00  8.0164165757269412e+00  8.0096982747627123e+00  8.0098951260054481e+00  8.0380998626022002e+00  8.0442141124220843e+00  8.0348849490670116e+00  8.0406413531263894e+00  8.0370546865094035e+00  8.0387536660702885e+00  8.0318199697653476e+00  8.0345773340823925e+00  8.0088471793822897e+00  8.0072330153501330e+00  8.0108765395842791e+00  8.0147540616307982e+00  8.0171909704583832e+00  8.0143340929899427e+00  8.0149119599427223e+00  8.0414296302657817e+00  8.0414311799971507e+00  8.0414773101239110e+00  8.0137913268680965e+00  8.0158996622180254e+00  8.0131857538159093e+00  8.0141598125271880e+00  8.0320792388550011e+00  8.0319555504806797e+00  8.0353206377864304e+00  8.0558472758818827e+00  8.0562667188321786e+00  8.0129911483036604e+00  8.0125410442878948e+00  8.0132570867159654e+00  8.0128045627114179e+00  8.0254501296807259e+00  8.0281211824669256e+00  8.0583332955634983e+00  8.0553488114209291e+00  8.0549744722226162e+00  8.0577258086771053e+00  8.0406967798238203e+00  8.0413553285818118e+00  8.0128346950563838e+00  8.0144436030378845e+00  8.0125398388461306e+00  8.0154545963815700e+00  8.0111864566738227e+00  8.0041669067959127e+00  8.0095867552407860e+00  8.0193454047924941e+00  8.0238395473831243e+00  8.0148336485468139e+00  8.0121942642554078e+00  8.0098485226856972e+00  8.0414895842604199e+00  8.0516199849323815e+00  8.0536312269126995e+00  8.0050780478549797e+00  8.0148159176971419e+00  8.0134357949733488e+00  8.0203498913387925e+00  8.0597594810236650e+00  8.0539141141036268e+00  8.0548085011773978e+00  8.0537729370592821e+00  8.0564545493499171e+00  8.0273096273720164e+00  8.0258148464304373e+00  8.0284645586648953e+00  8.0279219807767852e+00  8.0250523171568400e+00  8.0263336133491467e+00  8.0161737511624853e+00  8.0277904019791997e+00  8.0245645871910529e+00  8.0276099176238507e+00  8.0281900336292793e+00  8.0211455699485565e+00  8.0205890838631575e+00  8.0249252512592264e+00  8.0278231918873661e+00  8.0221075130926227e+00  8.0263136340587273e+00  8.0253964908031197e+00  8.0124366138495837e+00  8.0120930722856141e+00  8.0492155638081755e+00  8.0000000000000018e+00  8.0000000000000000e+00  8.0000000000000000e+00  8.0056489381050095e+00  8.0070685866831557e+00  8.0076667812342475e+00  8.0086235479050316e+00  8.0085397668900296e+00  8.0104662498725077e+00  8.0129670764999439e+00  8.0106124261216891e+00  8.0089090551102462e+00  8.0460066848673826e+00  8.0466550298663808e+00  8.0447556922922736e+00  8.0455090932723259e+00  8.0558500248379499e+00  8.0527037289989600e+00  8.0572379148235616e+00  8.0611512538466314e+00  8.0277964637499135e+00  8.0324943634510095e+00  8.0302553081721619e+00  8.0277816329028084e+00  8.0059348039950873e+00  8.0037581080848135e+00  8.0027351633165136e+00  8.0028740158659222e+00  8.0066409342631868e+00  8.0000000000000000e+00  8.0057382635072489e+00  8.0052154137209595e+00  8.0246740033771076e+00  8.0550762415863488e+00  8.0126542715564941e+00  8.0130050753244966e+00  8.0140614845873355e+00  8.0197305467119104e+00  8.0327235872058544e+00  8.0363291851302652e+00  8.0295615512438268e+00  8.0363930578047960e+00  8.0215883544238906e+00  8.0221846946214352e+00  8.0207867998450570e+00  8.0633199278518486e+00  8.0602198344439131e+00  8.0626005104815128e+00  8.0633813495302000e+00  8.0095221351837118e+00  8.0076094762173540e+00  8.0143703287401298e+00  8.0063047885086274e+00  8.0128979163960015e+00  8.0130238836716643e+00  8.0000000000000000e+00  7.9999999999999991e+00  8.0039849175604036e+00  8.0110922625236594e+00  8.0094840698525527e+00  8.0072182276096875e+00  8.0093626921418508e+00  8.0330418231540435e+00  8.0325396890109637e+00  8.0321407249045880e+00  8.0324695683478424e+00  8.0613135762873256e+00  8.0596476268396984e+00  8.0616299618750809e+00  8.0596046897165365e+00  8.0337850115463425e+00  8.0212478179816191e+00  8.0245066119450339e+00  8.0219320363630562e+00  8.0189509338958782e+00  8.0300032384277475e+00  8.0269832178116740e+00  8.0270376761527888e+00  8.0186879172714853e+00  8.0156307360216523e+00  7.9999999999999991e+00  8.0179670124683629e+00  8.0191971162763203e+00  8.0219871029318242e+00  8.0202600576585716e+00  8.0528597760242349e+00  8.0533288364566253e+00  8.0100507611192118e+00  8.0123069091159831e+00  8.0130877757258574e+00  8.0112473085765128e+00  8.0466254667859456e+00  8.0438765184997134e+00  8.0408475679886191e+00  7.9999999999999991e+00  8.0000000000000000e+00  8.0034634356416383e+00  8.0026433114957793e+00  8.0561354661681417e+00  8.0598596174797414e+00  8.0205406411510065e+00  8.0230268965093607e+00  8.0229787018068439e+00  8.0195893392843356e+00  8.0389508085198162e+00  8.0332868079684836e+00  8.0344487190814302e+00  8.0357682281400216e+00  8.0412504590634413e+00  8.0412493718525244e+00  8.0254207976435534e+00  8.0291159978190247e+00  8.0247252980952286e+00  8.0240190748636699e+00  8.0077488939169452e+00  8.0072563051541419e+00  8.0065922305024166e+00  8.0074464397753324e+00  8.0512287436107144e+00  8.0551982222730505e+00  8.0498669227720718e+00  8.0153364041582229e+00  8.0040464978387043e+00  8.0026820380202626e+00  8.0039260200417530e+00  8.0038248222371138e+00  8.0000000000000000e+00  8.0000000000000000e+00  7.9999999999999991e+00  8.0048999167179904e+00  8.0095715639236431e+00  8.0103887327561836e+00  8.0115240184925369e+00  8.0070528237929430e+00  8.0075725775276769e+00  8.0071215684268680e+00  8.0419504905611490e+00  8.0412750805919444e+00  8.0221985514855199e+00  8.0225929251543882e+00  8.0256469190991595e+00  8.0340261429723796e+00  8.0354510288016314e+00  8.0329477552896975e+00  8.0384055826326932e+00  8.0540099479168603e+00  8.0492991983328235e+00  8.0507961688147773e+00  8.0589667897372532e+00  8.0594990716516328e+00  8.0594841840374674e+00  8.0574593464134985e+00  8.0109965125591778e+00  8.0129238481601170e+00  8.0122619491728155e+00  8.0116407525664339e+00  8.0352079872479294e+00  8.0303754544343509e+00  8.0360571167630663e+00  8.0322054672781658e+00  8.0386710257792320e+00  8.0381703529480966e+00  8.0224305091125370e+00  8.0247895167244483e+00  8.0161467211522321e+00  8.0140348753035155e+00  8.0130509093574229e+00  8.0170251503825511e+00  8.0194341021665849e+00  8.0495511177759340e+00  8.0441351581475082e+00  8.0461080199242900e+00  8.0000000000000000e+00  7.9999999999999991e+00  8.0061324468885413e+00  8.0173929346678623e+00  8.0180358208913276e+00  8.0169424195828487e+00  8.0199174137657110e+00  8.0181125667804718e+00  8.0284000417569175e+00  8.0308923019273273e+00  8.0250985280974589e+00  8.0266399255395431e+00  8.0129567355811400e+00  8.0123004960952322e+00  8.0121688213299116e+00  8.0114805941292939e+00  8.0079282476102058e+00  7.9999999999999991e+00  8.0000000000000000e+00  8.0266325028199255e+00  8.0318160160094436e+00  8.0257737229361243e+00  8.0165300257474268e+00  8.0138818595192163e+00  8.0606202264406974e+00  8.0627211717975307e+00  8.0090607495057515e+00  8.0053314998650666e+00  8.0338496725229618e+00  8.0317045912340266e+00  8.0312987756229788e+00  8.0077857845758018e+00  8.0062852175009507e+00  8.0082298074856961e+00  8.0058226838031423e+00  8.0442432375930597e+00  8.0431839983823394e+00  8.0428664518504469e+00  8.0338900421870658e+00  8.0368033449218537e+00  8.0322035603256872e+00  8.0182038426224231e+00  8.0173901292032745e+00  8.0000000000000000e+00  8.0000000000000000e+00  7.9999999999999982e+00  8.0062431420478681e+00  8.0070811974371487e+00  8.0071556262208361e+00  8.0109595272725365e+00  8.0065348910150345e+00  8.0089629160900131e+00  8.0087396458669513e+00  8.0089843034817907e+00  8.0239941382290496e+00  8.0264535342083008e+00  8.0172837414189289e+00  8.0190146209840538e+00  8.0211092949954264e+00  8.0208211140261483e+00  8.0238038695871019e+00  8.0088567916100004e+00  8.0048255985509940e+00  8.0049621648038300e+00  8.0044354002827962e+00  8.0137158560115207e+00  8.0133497970995453e+00  8.0118076189588763e+00  8.0129618264011064e+00  8.0320944247539909e+00  8.0092930045599555e+00  8.0051634895422357e+00  8.0187254006705917e+00  8.0173399786131014e+00  8.0176771859342413e+00  8.0181048961147159e+00  8.0138117469696883e+00  8.0121430146656039e+00  8.0128516416689077e+00  8.0129907811607470e+00  8.0106148722966157e+00  8.0101203589474839e+00  8.0096824631640757e+00  8.0066318045253322e+00  8.0184734025561966e+00  8.0156746627426436e+00  8.0151812058886360e+00  8.0169314240922187e+00  8.0522084888287839e+00  8.0540723304606097e+00  8.0145281215639379e+00  8.0135424540241331e+00  8.0122043715333398e+00  8.0139197724172426e+00  8.0228359009980803e+00  8.0204168280567529e+00  8.0237151728851881e+00  8.0103024738660267e+00  8.0174691347445002e+00  8.0179747097885059e+00  8.0216320875048215e+00  8.0230300332598024e+00  8.0259830151403033e+00  8.0246580029100727e+00  8.0293944352507296e+00  8.0258283925642271e+00  8.0139588993926036e+00  8.0152581350219894e+00  8.0168386008971737e+00  8.0170609348863824e+00  8.0291121949059505e+00  8.0268434023833848e+00  8.0068808664597793e+00  8.0000000000000000e+00  8.0364685650860235e+00  8.0335473736601326e+00  8.0345551106190669e+00  8.0471927117255611e+00  8