<?xml version="1.0"?>
<VTKFile type="UnstructuredGrid"  version="0.1"  >
<UnstructuredGrid>
<Piece  NumberOfPoints="8524" NumberOfCells="41673">
<Points>
<DataArray  type="Float64"  NumberOfComponents="3"  format="ascii">2.602555990219116 3.782541990280151 16.32070922851562  3.15393590927124 3.408785104751587 16.88787078857422  3.35409688949585 3.221126079559326 15.91633033752441  2.671703293320731 3.132779532939822 16.37057058522603  2.740850596422345 2.483017075599493 16.42043194193644  2.35924080320131 2.850290927082701 16.8137973310964  2.290028095245361 3.939095973968506 15.48727035522461  2.25129119753097 2.979856121437809 15.88517768256417  1.872725461315621 3.54350525539212 15.50314678242394  1.969755645999429 3.550070537595927 15.9100728652843  1.649483196753497 3.161045101223348 16.33287537534399  1.853357012458426 3.063885329126771 15.70210044609372  1.552453012069689 3.15447981901954 15.92594929248363  1.455422827385882 3.147914536815733 15.51902320962327  2.126019593486307 3.471793545751749 16.32679230192981  3.131756067276001 1.632629036903381 15.45843029022217  2.185847295966118 2.176107380097848 15.98586190859962  2.346039950101747 1.663000324403357 15.89756556958941  2.381300031392946 1.750913360749792 15.50486108274249  1.630843995509891 1.869197684596204 15.55129187526281  0.09939099848270416 2.664138078689575 15.92801952362061  0.2831026701651738 2.489810210906818 15.99992615719612  0.439716495220506 2.623761780478201 16.07958298713208  0.2831026701651738 2.438040417873218 16.23069650669868  0.7800419919583079 2.583385482266827 16.23114645064356  0.6234281669029756 2.449433912695444 16.1514896207076  0.4668143418476434 2.315482343124061 16.07183279077163  0.09939099848270416 2.612368285655975 16.15878987312317  0.09939099848270416 2.560598492622375 16.38956022262573  0.2560048235380364 2.746319855227358 16.23844670305913  0.09939099848270416 2.794022083282471 16.16555953025818  0.09939099848270416 2.467407315969467 15.86689472198486  0.2831026701651738 2.39923743649657 15.77046377201851  0.2831026701651738 2.29307944818671 15.93880135556038  0.4668143418476434 2.224909568713813 15.84237040559402  0.4668143418476434 2.134336794303565 15.61290802041641  0.2831026701651738 2.202506673776462 15.70933897038277  0.09939099848270416 2.270676553249359 15.80576992034912  0.09939099848270416 2.573565304279327 15.69855713844299  0.2831026701651738 2.308664662086322 15.54100138684089  0.09939099848270416 2.376834541559219 15.63743233680725  0.09939099848270416 2.48299252986908 15.46909475326538  0.09939099848270416 1.877215027809143 15.68352031707764  0.09939099848270416 2.073945790529251 15.74464511871338  0.2831026701651738 2.005775911056354 15.64821416874702  0.2831026701651738 2.096348685466602 15.87767655392464  0.8342376852125826 1.966826607558547 16.21564605792266  0.650526013530113 2.050581700931057 15.91427703916954  0.650526013530113 1.944423712621196 16.0826146227114  0.650526013530113 2.141154475341304 16.14373942434715  0.4668143418476434 2.118751580403953 16.01070798913589  0.4668143418476434 1.922020817683845 15.94958318750015  0.4668143418476434 2.028178805993705 15.78124560395828  0.09939099848270416 2.414510071277618 16.05748963356018  0.2831026701651738 2.240182203494861 16.1293962671357  0.09939099848270416 2.164882063865662 16.18695974349976  0.09939099848270416 2.362740278244019 16.28825998306274  0.6221106273909681 2.52018155102811 15.66821469351917  0.4383989557084985 2.694509418810867 15.59630805994366  0.6221106273909681 2.610754325438358 15.89767707869679  1.144830256299232 2.55737057218714 15.86733463377297  0.9611185846167625 2.641125665559649 15.56596561501984  0.8058222990734377 2.436426457655601 15.9695837122723  0.7774069129342929 2.724880758932159 15.26459659626671  0.4383989557084985 2.785082193221115 15.82577044512127  0.7774069129342929 2.906026307752654 15.72352136662194  0.7774069129342929 2.815453533342406 15.49405898144433  0.6221106273909681 2.429608776617862 15.43875230834156  1.116414870160087 2.936397647873946 15.39180990294499  1.116414870160087 3.026970422284194 15.6212722881226  1.300126541842557 2.852642554501437 15.69317892169812  0.8058222990734377 2.345853683245353 15.74012132709469  0.9895339707559073 2.262098589872844 16.04149034584781  0.09939099848270416 2.21777930855751 15.99636483192444  0.09939099848270416 1.824317783117294 15.87411522865295  0.09939099848270416 2.021048545837402 15.9352400302887  0.2831026701651738 1.899617922746494 15.81655175228889  0.2831026701651738 1.846720678054645 16.00714666386421  0.09939099848270416 1.771420538425446 16.06471014022827  0.6633408469006867 1.543565298007637 15.9760228542482  0.3813659226916954 1.657492918216541 16.02036649723824  0.565077594374165 1.732793057845741 15.96280302087417  0.3813659226916954 1.604595673524692 16.21096140881355  0.4796291752182171 1.468265158378437 16.03358633061226  0.2959175035357475 1.392965018749237 16.09114980697632  0.1976542510092258 1.582192778587341 16.07792997360229  0.3813659226916954 1.71039016290839 15.82977158566292  1.247980746253095 1.977360008709299 15.41601140217464  1.387837125904562 2.213284128391672 15.70931325451789  1.232540840361237 1.918012146077375 15.88346896659273  0.8496775911044401 2.026174470190471 15.74818849350457  1.004973876647765 2.321446452504767 15.57403278142972  0.8651174969962977 2.085522332822394 15.28073092908648  0.8212622049652953 2.405201545877276 15.2726637626766  1.676051020622253 4.030196189880371 15.9697904586792  1.565736924004067 3.589055363348052 15.74440683415123  2.241971596909167 2.333932413124237 15.49438593252358  1.640163596131694 2.515121392909776 15.9420836253034  1.94106759652043 2.424526903017006 15.71823477891349  0.7258462987040333 3.199944356975106 16.24664684336447  0.7516266058191631 3.05298533236388 15.9850841049932  0.9353382775016327 2.878657464581123 16.05699073856871  1.090634563044957 3.17392944689542 15.88283502649387  2.139303505420685 3.906369090080261 16.14524984359741  0.9475060105323792 3.961002111434937 16.12936973571777  0.7354772575199604 3.857629835605621 16.09713220596313  0.6635847575962543 3.823032081127167 16.27249956130981  0.8920910825752927 3.770737672819979 16.15868901262944  0.8366761546182062 3.580473234205021 16.18800828954112  0.6800623295628739 3.667365396990664 16.12645148287481  0.6081698296391679 3.632767642512209 16.30181883822149  0.3796635046601295 3.685062050819397 16.41562938690186  0.4515560045838356 3.719659805297852 16.24026203155518  0.5234485045075417 3.754257559776306 16.0648946762085  0.6246474016057875 3.477100958375706 16.15577075978648  0.5527549016820814 3.442503203897251 16.33113811513316  0.7812612266611197 3.390208795590063 16.21732756645279  0.8496775911044401 1.92001648188061 15.91652607704644  0.7487892660566347 1.755195952783092 16.09583445608543  0.7642291719484922 1.708385827105155 15.79671447520921  0.6659659194219705 1.897613586943259 15.78349464183519  0.8651174969962977 1.873206356202673 15.61740609617022  2.592993021011353 1.026317000389099 15.83792018890381  2.111918508260622 1.447757342492651 15.69460603208331  0.9368602633476257 3.967978358268738 15.93675231933594  0.724831510335207 3.864606082439423 15.9045147895813  0.8814453353905393 3.77771391965378 15.96607159624761  0.8153846602486994 3.594425727872624 15.80277345677745  0.7141857631504536 3.871582329273224 15.71189737319946  0.8707995882057858 3.784690166487581 15.77345417986577  0.6587708351933671 3.681317890658266 15.74121665011114  0.5021570101380348 3.768210053443909 15.67965984344482  0.9262145161628723 3.974954605102539 15.7441349029541  0.6694165823781205 3.674341643824465 15.93383406649297  0.5128027573227882 3.761233806610107 15.87227725982666  0.8260304074334528 3.587449481038822 15.99539087315928  0.9049230217933655 3.988907098770142 15.35890007019043  0.9155687689781189 3.98193085193634 15.55151748657227  0.7035400159657001 3.878558576107025 15.51927995681763  0.8601538410210324 3.791666413321383 15.58083676348394  0.7706154794763663 3.397185042423865 16.02471015007096  0.7516266058191631 3.23558255230788 15.74772434280143  1.116414870160087 3.209567642228194 15.38391252593083  1.135403743817291 3.371170132344179 15.66089833320036  0.7963957865914961 3.432823237756639 15.52578764950792  0.7774069129342929 3.271220747640655 15.24880184223839  1.180172924589624 3.568410817792937 15.43896163990685  0.9787899187619582 3.419815782716796 15.34388174107262  1.543133411447887 2.508556110705968 15.53515754244304  1.547793211758788 2.831517964862754 15.73055341746333  1.848697212147524 2.740923474969985 15.50670457107342  1.187664747728765 3.180494729099227 16.28976110935423  1.397156726526364 2.859207836705244 16.10010500455848  1.904368996620178 0.6144359707832336 15.46722030639648  1.335739105279985 1.038450625464495 15.8135071650918  1.074485214745755 3.757730217780136 15.97678310419415  1.20146441895913 3.554458324125335 15.82419647267052  1.019070286788668 3.567465779165178 16.00610238110582  1.063839467561001 3.764706464613937 15.78416568781231  1.053193720376248 3.771682711447738 15.59154827143048  1.042547973191494 3.77865895828154 15.39893085504864  0.9636553588315818 3.37720134055022 16.03542165801749  0.7774069129342929 3.088623527696654 15.48616160443017  1.517846439671029 3.684252802541778 15.17672647526452  1.227328485833454 3.358994137319444 15.23734095344198  0.9992341442810261 3.570073737823154 14.9556586972607  1.290487021207809 4.009551644325256 15.66434526443481  1.628160536289215 4.125393629074097 15.40211009979248  1.097705021500587 3.999229371547699 15.51162266731262  1.211384730732197 3.83657995065596 15.26781327272747  1.123000307087659 3.761012858882039 16.18024614562433  1.298494603642938 3.561023606329142 16.23112255553088  2.023802970242013 3.571007315328643 15.14768137028405  1.311778515577316 3.995599150657654 16.04958009719849  1.118996515870094 3.985276877880096 15.89685750007629  0.09939099848270416 10.62012958526611 7.12263822555542  0.32570607742460
[...]
<PointData  Vectors="u"> 
<DataArray  type="Float64"  Name="u"  NumberOfComponents="3" format="ascii">5.9830228885149701e+00 -3.5522766674583295e+00 -6.8952129568193907e+00  1.1654975470316080e+01 -6.1815922221475006e+00 3.8051936581544621e+00  3.2986361455747066e+00 -2.3428293251017744e+00 -1.0640055755922738e+01  8.5396197788128099e+00 -1.7517905136212957e+00 -5.0357404415272375e+00  9.9193989998061820e+00 1.2454361436129859e+00 -3.7565256945713319e+00  1.1628383847219137e+01 -3.4947979152653968e-01 -4.0574160873341318e+00  8.6063835493950585e+00 -1.5308780047109092e+00 -1.2103741972357435e+01  9.6197115818779562e+00 6.3553274196786091e-01 -7.7450623884893686e+00  1.0048364357754934e+01 1.2428146233653399e+00 -9.5023733937782957e+00  9.4005192817745602e+00 1.0704701328390173e-01 -8.6225598053583727e+00  1.0759958719709671e+01 6.6476770374906555e-02 -7.0639355139267215e+00  1.0436910197635838e+01 9.8555679458569445e-01 -8.0648982489243934e+00  1.0816873286260288e+01 1.0507104783333900e+00 -7.7838346904461595e+00  1.1274611013070064e+01 1.8538569183442692e+00 -8.1402560690294390e+00  9.7112162731936742e+00 -1.1959347015922259e+00 -6.8566981360463668e+00  5.6038005533097142e+00 5.8847656563257695e+00 -9.1045705016290981e+00  9.1848653649696175e+00 1.2129062351998776e+00 -6.1251003171750602e+00  7.1924214444512300e+00 2.7317666810743906e+00 -5.9693067487965967e+00  7.9249742770560347e+00 2.8466639126681712e+00 -7.6861962109811772e+00  9.3470198995158906e+00 2.4489380303339911e-01 -6.7166343821229564e+00  1.9912850526999108e+01 1.1402637673817763e-01 -6.8225346551920802e+00  1.8071883115835384e+01 -1.6130994881710359e+00 -6.7797783720859135e+00  1.6719748785410019e+01 -2.3353563295566868e-01 -6.8729542489498945e+00  1.8006794562143064e+01 -2.1680457353579423e+00 -6.8693810580962564e+00  1.4065865814611024e+01 -4.3680975540731498e-01 -6.9091233041034101e+00  1.5022399490168539e+01 -1.5030183929537588e+00 -6.8058003409478189e+00  1.5897313003149410e+01 -2.9782252999253718e+00 -6.7512309050662989e+00  1.9985122814514003e+01 -3.9266729965533204e-01 -6.8505509828603035e+00  1.9964903123614032e+01 -9.4873179634039828e-01 -6.9498296908869195e+00  1.8415016224930714e+01 1.0047597406864237e+00 -6.8503853226316629e+00  2.0019846739136351e+01 1.4974102541151257e+00 -6.8211919995135926e+00  2.0012068499632704e+01 -1.7480149925423307e+00 -6.7614492494674705e+00  1.8072171512854812e+01 -2.4386611329566739e+00 -6.6889090953048331e+00  1.7766262763661295e+01 -3.7541436080541888e+00 -6.7298055563673369e+00  1.5594629889454669e+01 -3.7497879199169093e+00 -6.5964439388616816e+00  1.5281440502160935e+01 -4.3372287040453870e+00 -6.2674749522849673e+00  1.7436429891996884e+01 -4.8403707459313372e+00 -6.3736520388082720e+00  1.9959855491160774e+01 -4.2827852918627745e+00 -6.5207729814031579e+00  1.9965772674268003e+01 -5.6979426714624404e-01 -6.7754313519596518e+00  1.7890620598601902e+01 -3.1257179312380825e+00 -6.3747966380845522e+00  1.9976275170360093e+01 -2.6587607609744897e+00 -6.5627589447136652e+00  1.9925068977521910e+01 -1.2365067104281968e+00 -6.6005619992873550e+00  1.6115301029005114e+01 -1.4788168781171061e+01 -4.4618156377740821e+00  2.0265865112940507e+01 -7.6479064372051342e+00 -6.7287461006719642e+00  1.6497840939702336e+01 -7.7230980888420735e+00 -5.8004352067464851e+00  1.6984396973121644e+01 -6.4129573334728018e+00 -6.6590506776502654e+00  1.1694130450321456e+01 -3.5625657625248603e+00 -6.5018508437384988e+00  1.3173784885116948e+01 -4.2073673131606544e+00 -6.5783651735347766e+00  1.2429722258377565e+01 -4.9104879834574362e+00 -6.5669016098713149e+00  1.3776791117640201e+01 -3.6713110122364387e+00 -6.6594026083484206e+00  1.5007796835728126e+01 -4.9069685167948531e+00 -6.6857657481817077e+00  1.3134284755971795e+01 -6.8748141430434604e+00 -6.6061927275550181e+00  1.4242603577384338e+01 -5.7186777215517308e+00 -6.2921676746017328e+00  2.0035312058662591e+01 -2.5086219122822007e+00 -6.8218028837888589e+00  1.7674672773358861e+01 -4.4386757249187045e+00 -6.7980263871824320e+00  2.0039613823352969e+01 -5.7731813616782608e+00 -6.8676137406500013e+00  1.9957421548433636e+01 -3.0635654340839102e+00 -6.8495127340223618e+00  1.5177722892763786e+01 -5.6595355440177164e-01 -6.8271515344671787e+00  1.6872632554632737e+01 7.2935715177422356e-01 -6.9546641477237880e+00  1.5198411140925096e+01 -1.5432053868041143e-01 -6.9323380062647422e+00  1.2364797587717868e+01 6.6104052015760403e-02 -6.9763662994101603e+00  1.3303311359473534e+01 5.7447392609640535e-01 -7.1426290761252007e+00  1.3710901987696456e+01 -1.1248974311674949e+00 -6.7975799130623491e+00  1.4506037072798101e+01 1.3251312196511511e+00 -7.0898799127399226e+00  1.6754937220134710e+01 1.2114028310075751e+00 -6.9618469589362553e+00  1.4140751408886477e+01 1.8213113916809780e+00 -7.2617263209483607e+00  1.4345394375827393e+01 1.5763051774485857e+00 -7.2142903275966601e+00  1.5227189429751766e+01 -1.0392034183210284e+00 -6.7387738205250400e+00  1.2698390948899814e+01 1.9910490689715761e+00 -7.6116723784957001e+00  1.2370561649726985e+01 1.8829154019100613e+00 -7.6287569138125360e+00  1.1911469043656014e+01 1.1768066732943114e+00 -7.4949362233219405e+00  1.3636778128308070e+01 -1.4603510258009667e+00 -6.7377210304099382e+00  1.2370548853374160e+01 -1.5815882925730116e+00 -6.7140382469014250e+00  1.9974343644235201e+01 -4.9432846541557751e+00 -6.7215995907171822e+00  1.4412473165924389e+01 -1.8294083694745723e+01 -9.0990545477692244e+00  2.0534067593785977e+01 -8.9164976886415523e+00 -7.1833756594968436e+00  1.4515651074208952e+01 -9.7961392984473097e+00 -6.6764193798739404e+00  1.4048067537898449e+01 -1.0550460504474231e+01 -7.1993185272943299e+00  1.4899060725058410e+01 -1.6683205426023594e+01 -8.7195148846645605e+00  8.5373211251627676e+00 -5.9057012238436490e+00 -6.3453510074206747e+00  9.6652422871141805e+00 -9.3972988546455145e+00 -6.9107328719522849e+00  1.0841596066067190e+01 -6.7557858595895910e+00 -6.5089019230625667e+00  9.2404128034378612e+00 -9.3374407866212401e+00 -6.9003701007212284e+00  7.6745712274483271e+00 -7.7865425507870851e+00 -6.6406725199670120e+00  6.2978488956334342e+00 -9.5227020029400808e+00 -6.9121570568678274e+00  7.7100134295848575e+00 -1.2477676854444372e+01 -7.5880514468001472e+00  9.7325294682299823e+00 -9.3575178852758683e+00 -6.7054149539095649e+00  1.0576984191064263e+01 -9.2301444602019767e-01 -6.7479101957190810e+00  1.0860719267258434e+01 -2.5742517931519593e-01 -6.8812007677852352e+00  1.0200676111663554e+01 -1.4666663327765570e+00 -6.4830659441446761e+00  1.2011212904939104e+01 -2.9164214064472702e+00 -6.5029829017811744e+00  1.2572537015023057e+01 -8.9276102205061247e-01 -6.7927898303017047e+00  1.2538680428152039e+01 -2.1446411949368884e+00 -6.5034280613619329e+00  1.3938281276861098e+01 -6.4806188728746572e-01 -6.7603726302868772e+00  7.7035475481098494e+00 3.2889145639613121e-02 -9.4321364230846552e+00  9.8657521438533173e+00 1.4100496160193330e+00 -8.8796369451655028e+00  9.6707944552256926e+00 1.8304836215493971e+00 -8.0597936678423494e+00  1.0908887253777024e+01 5.6410693847582027e-01 -6.8287627985660375e+00  1.0201951220960245e+01 1.1489759019716137e+00 -7.1723509577890638e+00  1.3043038224691387e+01 3.1066817453523550e+00 -7.1160566333068287e+00  1.3855980602367735e+01 2.4410707793464628e+00 -7.1647992820139104e+00  1.3261856342884283e+01 1.1470426394362419e+00 -7.2021058639596269e+00  1.2027803948677034e+01 2.0505679017418434e+00 -7.6862973865868787e+00  8.4917483335117510e+00 -2.1047938483645368e+00 -8.5632244105862707e+00  7.7955459695784475e+00 1.9775193415743519e+00 -7.8736984333657345e+00  9.5129421558107978e+00 5.0991561683334501e+00 -7.9977200820520284e+00  9.8587001595790404e+00 4.6812154641291519e+00 -7.1232695181778167e+00  9.4513039295596339e+00 3.6660719489206928e+00 -7.7533252292225203e+00  1.0754417628930330e+01 3.5864974750222398e+00 -7.4585351268312143e+00  1.0886557438897354e+01 4.6800172097313109e+00 -7.2258615999954818e+00  1.0719971226527683e+01 4.7672584299624701e+00 -6.6037725948603034e+00  7.2270306885685036e+00 6.8109207575777617e+00 -3.5976044833744032e+00  1.0922042317535137e+01 4.9088651690558978e+00 -5.7469127159908089e+00  1.1561546556171702e+01 5.6585500189569276e+00 -7.1489368365943751e+00  1.2102343515098468e+01 4.7371656050003770e+00 -6.8415004688528471e+00  1.1832855345552108e+01 5.4204195338827894e+00 -6.2655185099998718e+00  1.2049391824926746e+01 3.6261482957105091e+00 -7.2243609572188259e+00  1.1305865930428125e+01 -3.5447704120658519e+00 -6.4393874472441057e+00  1.0407922410157617e+01 -4.9175450266589795e+00 -6.4332072519233572e+00  9.7868739519596861e+00 -4.7947315975455354e+00 -6.2928795719651367e+00  1.1809908687740206e+01 -4.8910641156324619e+00 -6.3394018238455967e+00  1.1045109914082454e+01 -3.3897710858581456e+00 -6.4030390783906057e+00  3.9021326634332207e+00 4.3837343610173800e+00 -5.9503830409672362e+00  7.1048744088397413e+00 2.1677919351209938e+00 -6.3571804365203022e+00  7.0126228807427591e+00 2.6507427008297588e+00 -8.4126848411467101e+00  9.8097592188248637e+00 5.6481092239371176e+00 -8.1360804465565639e+00  9.6116736857304765e+00 4.0169592140275174e+00 -8.1414528094462923e+00  1.1384313094110976e+01 4.1910684679775763e+00 -8.1894759360771641e+00  1.0047901763075052e+01 5.7581677638492401e+00 -8.6669524643105156e+00  9.8802045662381595e+00 4.3422685773516712e+00 -8.6149521525343751e+00  1.1721522617145800e+01 5.4515095147523560e+00 -8.2895680006490213e+00  1.1940419910154823e+01 6.7869189532942142e+00 -8.4504058058974447e+00  7.9325181078909752e+00 2.3365844453805629e+00 -8.9729595613902458e+00  1.1412391904977229e+01 5.1038620117693831e+00 -7.7135164671685157e+00  1.1930230093185390e+01 6.3825514737680029e+00 -7.6737593739602650e+00  1.1153950642744315e+01 3.9006189821012840e+00 -7.7163873166435630e+00  6.7600749191339151e+00 5.1701542489227261e+00 -1.1229040623391777e+01  7.8837150109939653e+00 2.8701449360284048e+00 -1.0408243365350597e+01  1.1279903574679576e+01 5.3433734391204855e+00 -9.7767070431139445e+00  1.0206219489430836e+01 4.6794477049644501e+00 -9.3922506544936120e+00  1.2394602938962635e+01 3.7339531932858430e+00 -7.4029008234563580e+00  1.3515879290509954e+01 3.5420697869242241e+00 -7.6553070241989118e+00  1.2153683005443396e+01 2.9638363884492036e+00 -8.1081520385111503e+00  1.1471573494324874e+01 2.6432588771319079e+00 -8.2433257998408376e+00  1.2436461233786565e+01 4.5094831409107154e+00 -8.3733517290329296e+00  1.3285932268600547e+01 4.6749853624565567e+00 -8.1195392515588747e+00  1.0747098880483964e+01 3.3342118837335910e+00 -9.0097402877644104e+00  1.1806908568787176e+01 4.2199380687563268e+00 -8.5614949189822536e+00  1.1135901758003383e+01 8.1060678731657443e-01 -7.3107846925613549e+00  1.1203500553389519e+01 9.7574581927811721e-01 -7.5085515751231959e+00  1.0743774606215052e+01 1.1403699513253021e+00 -7.9850191914904007e+00  1.1678169783753034e+01 1.4412839937603603e+00 -7.2732934669812010e+00  1.1607487947015226e+01 6.5272661092623163e-01 -7.1334653382337168e+00  3.9003873490150736e+00 1.2536898651698059e+00 -7.7269115848076124e+00  5.5331682108972551e+00 -5.4924519076422540e-01 -6.2426392114625386e+00  9.6184233165565018e+00 2.3853508766063589e+00 -8.3606370977822451e+00  1.0584572848486131e+01 2.3847891711772196e+00 -8.3992986692158826e+00  1.0638610016718557e+01 2.8270056283042737e+00 -8.0032870004975400e+00  9.8488322507007258e+00 2.4787689496803202e+00 -8.8054760510528798e+00  1.0054029383545034e+01 2.9341450288876132e+00 -9.2911465180812414e+00  1.0009054839769663e+01 4.1340610649535980e+00 -9.8800880988237108e+00  1.1610843038630742e+01 2.7699586377249723e+00 -7.6279767647773093e+00  1.3881701126327513e+01 3.1496265376756414e+00 -7.6815833670904015e+00  1.0175290059782075e+01 2.9969039020365424e+00 -9.6976119584918408e+00  1.1552941796932219e+01 3.3059480704055391e+00 -8.3989832903778563e+00  1.1169674348781280e+01 5.5778703814386530e+00 -8.3408934037998499e+00  9.6216721464268993e+00 2.9593561165465272e+00 -1.0358204517273272e+01  6.6736795661805912e+00 9.9143748595571268e-01 -1.0238137743515635e+01  1.0413540451626728e+01 2.3143480983410925e+00 -1.0999141625106267e+01  9.7198029535774442e+00 3.7044769378008344e+00 -9.7244788545365175e+00  9.4360257340782709e+00 1.7043516384520478e+00 -7.9290697584121341e+00  1.0176558034342412e+01 1.3901248465593665e+00 -7.6999497575750917e+00  1.0517331724754897e+01 9.4465349746769789e-01 -1.0780559042699224e+01  9.1246321185471118e+00 7.3836722724828996e-01 -9.0056102359491366e+00  9.2314785536222637e+00 1.0520228099325271e+00 -8.8889131993258115e+00  1.4541542045223833e+01 1.2404506889598549e+01 7.7479624409267975e+00  1.7759337899472058e+01 7.4160513278695852e+00 1.6087193706247702e+00  1.7791984364182859e+01 7.6248947299513619e+00 1.9669530357476237e+00  1.5296905267486505e+01 6.6236824784660975e+00 1.2997119536520547e+00  1.5906155103049716e+01 4.4422172144131746e+00 -4.2020831723593566e-01  1.7817033683506505e+01 5.8785003298864780e+00 1.9298825254003876e-01  1.6810726057720839e+01 5.1248649003192766e+00 -3.0944889211507670e-01  1.7858757783347873e+01 5.7706927066762832e+00 9.5718107949740103e-02  1.7700482944255697e+01 5.8041781808912880e+00 -1.1802658700754926e-01  2.0329834346940309e+01 9.9972353185127343e+00 4.2436849915828425e+00  1.9870654337238911e+01 7.7111717913019051e+00 1.7462083807228346e+00  1.8408942265117059e+01 6.6369146942152106e+00 8.1154334573301767e-01  1.8428666999775633e+01 6.8081511878150360e+00 9.5776058263132857e-01  2.0949573452526604e+01 8.9603351801151874e+00 3.5001663747117089e+00  1.9769055550521866e+01 7.4394116663607806e+00 1.5405317193289378e+00  2.0319840198307482e+01 7.1020717353720109e+00 1.0542416722550256e+00  1.8312717860679179e+01 6.6317207320363920e+00 5.3662500373074606e-01  1.9977668457979551e+01 5.7100526274178831e+00 -7.0240282297730605e-02  1.8961051400435295e+01 5.8916712995167293e+00 7.5514566256252788e-02  1.9948940592684288e+01 6.3720366504704957e+00 4.8773701573907224e-01  2.0029256766748414e+01 5.6959286419187265e+00 -7.9448517161122917e-02  2.0051771354110212e+01 5.7014405278548912e+00 -1.8723786427277617e-01  1.8921685165356386e+01 5.9221840550313312e+00 -6.2605378162653297e-02  1.9835930175270697e+01 6.4005986507283126e+00 3.5011493560477508e-01  1.9015020805362980e+01 5.9337236921347571e+00 1.3970918216111236e-01  1.9971052813510692e+01 6.4550912751240839e+00 5.5014340539830275e-01  2.0057835731964634e+01 6.0257217264879745e+00 -5.9441493887522623e-01  1.8894561256529794e+01 6.0204627125473946e+00 -3.0766975461600332e-01  1.9955932028911345e+01 6.4194131350839321e+00 3.1652203114771758e-02  2.0012093126853397e+01 5.7868122374799968e+00 -3.5626435381143945e-01  1.5325341151225251e+01 5.3470884785318313e+00 3.3543910966197826e-01  1.7854984987544260e+01 6.9809007318549892e+00 1.9662691287399063e+00  1.6664429334600833e+01 9.2996072386048176e+00 2.9027343418003468e+00  1.4900434150787337e+01 8.5396821397533351e+00 3.4759832168895137e+00  4.6701710597205190e+00 -3.5716506235214776e+00 -2.0478966827684735e+00  5.0799380910812735e+00 -1.6381874590370364e+00 1.4962742465379995e+00  8.3337938002573448e+00 -2.2473642749146259e+00 -1.2368022423682765e+00  5.7405089149422297e+00 -1.2971594477282229e+00 -1.2287622897734287e+00  4.9515347062392490e+00 3.6743895760829781e-01 -2.9269502090920931e+00  1.0337551061395420e+01 3.3340054157971372e-01 -7.5354714554605773e-01  1.0198626978481032e+01 3.2114720537739769e+00 -1.0386324289541860e-02  1.2783852588578526e+01 5.3935383414481173e+00 -1.0107930767588914e-01  1.3526331835812835e+01 3.2008282268783845e+00 -1.2930365095757033e+00  9.7014345823998696e+00 3.7247282411360239e+00 -2.0944169564773705e+00  2.8578503865795506e+00 9.0747625028888343e+00 1.2340887290077690e-01  2.6883763535152032e+00 4.5496171419121092e+00 -1.0869346028074249e+00  6.1389442021565594e+00 4.0069076809909445e+00 -2.0792261626890567e+00  6.0913415170854277e+00 7.0478407368256653e+00 -2.3234213827645692e-01  2.0532346171106589e+01 3.4436824979808240e+00 6.6511045918068612e-01  2.4720877941981648e+01 6.6981309084264575e+00 3.0809076466001151e+00  2.3570382366283294e+01 2.1905027544458013e+00 2.9991303361216475e+00  1.9927977468154726e+01 4.3916466003609713e+00 2.0025036864445860e+00  1.1016555973241445e+01 6.2474526883083206e+00 -3.0388912246160431e+00  1.1214273656057875e+01 1.7235241797373959e+00 -5.3015049897289286e+00  1.2408367627055020e+01 3.2889652236875944e+00 -2.2430282714829972e+00  1.6135986230514021e+01 7.3713547596512798e+00 -2.1012176040035704e+00  2.1968332736829268e+01 8.5167593621770017e+00 1.3108195709622857e+01  3.0949597356227049e+01 -3.1647909106797139e+00 -3.2190370347574343e-01  2.0936714267654231e+01 4.0816831795343731e+00 5.0948420005927701e+00  1.8847928101499360e+01 1.7006840858085854e+00 -4.5261747728459301e-01  5.1483969191747310e+00 -7.1840921898863952e+00 -5.8700497511197525e-01  7.2202833624483027e+00 -4.5287121137840112e+00 -4.6284931256267881e-01  7.6707678137001238e+00 -3.3758095196115590e+00 -6.0729592388883469e-01  7.9501165856384519e+00 -5.6197784766277685e+00 -5.5089076072076992e-01  9.9317769162350551e+00 -3.4029283277447995e+00 -4.8006261079960677e-01  8.7956717626280057e+00 -7.2185345485568753e-01 4.3347226824769144e-02  8.1244571613888841e+00 -2.3474546319838629e+00 -2.4985124458877137e-01  5.4376670779141980e+00 -4.9206848978821665e+00 -6.1141379784476557e-01  5.3118417668504829e+00 -2.3363049467069983e+00 -2.4211288471903464e-01  4.9741300999804379e+00 -5.9836298501696277e+00 -2.2655426486146002e-01  4.2513799185936403e+00 -5.0030715141592967e+00 -2.5518886586609107e-01  3.3428636706253299e+00 -1.3520228234297045e+00 1.4826788153853199e-01  7.2806266699133841e+00 -6.3367824351468621e-02 -1.9080951482512012e-01  1.1361393099990925e+01 3.5234379160720634e-02 4.3898602841463286e-01  1.2149039395111343e+01 1.1242413797162902e+00 -2.2293774050299660e+00  1.2502677698340936e+01 4.3971008686527231e+00 -1.5806420864109758e+00  1.3981653149982900e+01 4.3813569245022004e+00 -7.7318496050426000e-01  1.6421869239956603e+01 4.1759642812012494e+00 -6.2406680818029601e-02  1.7711759752203733e+01 8.9075885633663319e+00 1.4272051253038295e+01  1.8253625863738144e+01 7.6387974842978235e+00 6.3793669885341693e+00  1.8252420638521198e+01 8.1007413454208539e+00 6.3863130869270393e+00  1.5233440414730168e+01 7.6483490518385242e+00 1.0036002698123097e+01  1.4682069227389281e+01 7.4075849062679548e+00 7.0600139420417838e+00  1.6845730431274003e+01 7.4572050661068872e+00 5.5178929813022428e+00  1.6721387560752277e+01 7.7279794752022646e+00 5.6841753850798158e+00  1.7978555289075178e+01 7.2422765473186823e+00 4.2647258486723842e+00  1.7977597035485807e+01 7.2275837797063955e+00 4.3386757993447338e+00  1.7893360829797363e+01 7.2812077778818045e+00 4.3724138760517182e+00  2.0123148269146508e+01 7.7373258702526426e+00 6.4622986532198547e+00  2.0064074626382503e+01 7.3700760846767386e+00 4.7982254575600267e+00  1.8882926695650500e+01 7.3715969513190780e+00 4.6688478218801750e+00  1.8886965834638502e+01 7.3260097367754433e+00 4.6311860531735558e+00  2.0015930494262783e+01 6.4876934721640449e+00 3.0999082070976782e+00  1.9405162125877258e+01 6.3893691164200943e+00 2.9737381464582144e+00  1.9211310927870830e+01 6.9457127194177808e+00 3.7481003401038007e+00  1.9261872292642387e+01 6.8414275475027475e+00 3.6503840787688455e+00  1.8485968533087387e+01 6.7982385630811057e+00 3.5068921823760557e+00  1.8524041136991372e+01 6.7107874070330364e+00 3.3814696124866543e+00  1.8830035614182279e+01 6.2818272161027311e+00 2.8117418977892163e+00  1.9981099376914184e+01 6.8895217154629540e+00 3.7026093222675667e+00  1.4245745259845819e+01 6.7693873756429701e+00 3.7275460473985489e+00  1.5548427070243777e+01 7.0165720607127060e+00 3.7255298749490526e+00  1.6080281910325112e+01 7.2401140449247592e+00 4.5272312158907067e+00  1.6071711853205560e+01 7.3351757922525502e+00 4.6488270913419312e+00  1.7192125715689009e+01 7.0752061773889201e+00 3.8787619907