<?xml version="1.0"?>
<VTKFile type="UnstructuredGrid"  version="0.1"  >
<UnstructuredGrid>
<Piece  NumberOfPoints="4168" NumberOfCells="18958">
<Points>
<DataArray  type="Float64"  NumberOfComponents="3"  format="ascii">23.6134599878 9.132599273 18.8692584979  24.37539440275 8.79261728865 18.3476137715  24.12425881475 8.770037648199999 18.9943086894  24.19959725815 9.343577279249999 18.7234206418  23.8645955758 9.155178913450001 18.22256358  24.7857345285 9.554555285499999 18.5775827857  24.45073284615 9.3661569197 18.0767257239  24.7103960851 8.981015654449999 18.8484708333  24.1157311638 9.1777585539 17.5758686621  24.6350576417 8.407476023399999 19.1193588809  24.0499407563 5.8103108205 15.9018780432  24.3030451684 5.810317396649999 16.91511894235  23.57342120875 5.630628093249999 16.86240275725  23.9797219862 6.40615462625 16.8872532916  23.9095032161 7.001998432 17.87262854  24.2328263983 6.4061612024 17.90049419075  23.50320243865 6.226471899 17.84777800565  23.0969016612 5.450945366 17.8229274713  23.82652562085 5.6306346694 17.8756436564  24.5561495805 5.8103239728 17.9283598415  22.0322746593 6.9843670253 18.4821589361  21.55724774345 7.016356920150001 17.48294217465  22.4230904956 7.2439942307 17.6158387716  22.01864323065 6.5762902565 17.9230103798  21.5708791721 7.42443368895 18.04209073095  21.1094836849 7.8645003526 17.6020225258  21.9616950084 7.684060894350001 17.17577056645  22.005011802 6.1682134877 17.3638618235  22.40945906695 6.8359174619 17.0566902153  22.8139063319 7.5036214361 16.7495186071  22.9897929846 9.141422974999999 16.7515427822  22.42209832735 8.09404005195 15.86083059705  22.5100416537 8.912940821399999 15.8618426846  23.2393474007 8.6763018804 16.0877571748  22.90184965825 8.322522205549999 16.75053069465  23.4889018168 8.2111807858 15.4239715674  22.7595960698 8.447819726799999 15.1980570772  23.15140407435 7.857401110950001 16.08674508725  22.0302903228 8.6844586678 14.972142587  20.4629834952 7.8835947773 20.0203553508  20.1028199922 7.04064884245 20.08519721195  19.34094888115 7.831678912899999 19.78830357645  19.98540294775 7.1397752396 19.33512882915  19.5078224003 6.3959557019 18.6499023075  18.98078537815 6.98873297805 19.8531454376  19.62523944475 6.29682930475 19.3999706903  18.8633683337 7.0878593752 19.1030770548  18.2189142671 7.7797630485 19.5562518021  19.7426564892 6.1977029076 20.1500390731  25.7707237617 8.813901855799999 15.0487047788  26.3296750897 9.368708116899999 14.25992528905  25.63866877255 9.362978227599999 14.3905428049  26.0870762166 9.655120317750001 14.86595658365  26.46173007885 8.819631745100001 14.91808726295  27.152736396 8.8253616344 14.7874697471  26.77808253375 9.66085020705 14.7353390678  26.4034286715 10.4963387797 14.6832083885  25.95502122745 10.20419668955 14.20779460975  25.5066137834 9.912054599399999 13.732380831  26.0109022179 11.3282648461 17.099190812  26.9103222974 10.97041427455 17.49759177485  26.80495856585 11.31977848745 16.9330212258  26.57847329185 10.40771746815 17.33901902925  27.1460443658 9.487170090199999 17.5788472465  27.47789337135 10.0498668966 17.7374199921  27.3725296398 10.3992311095 17.17284944305  27.5990149138 11.3112921288 16.7668516396  27.70437864535 10.9619279159 17.33142218865  27.8097423769 10.612563703 17.8959927377  22.9147450554 2.3933495414 19.2503428715  22.83595852375 3.6427018459 19.35523167065  23.39286082925 3.0147092384 19.6662335032  23.106922589 3.0178465704 18.96224452885  22.64378099015 3.0182048169 19.6433300133  22.3728169249 3.6430600924 20.0363171551  23.121896764 3.6395645139 20.059220645  23.2991001226 3.6423435994 18.6741461862  23.58503836285 3.6392062674 19.37813516055  23.8709766031 3.6360689354 20.0821241349  19.4419633501 4.893276258 17.7499123287  19.8463723566 4.41154360765 18.9201900301  20.00474867845 5.046830254050001 18.11508383335  19.37010959675 4.9608483359 18.50025787255  19.91822610995 4.34397152975 18.16984448625  20.3944888698 3.7946668015 18.5897766438  20.4810114383 4.4975255258 18.5350159909  19.2982558434 5.0284204138 19.2506034164  19.9328949251 5.11440233195 18.8654293772  20.5675340068 5.2003842501 18.480255338  23.9670656522 -0.6702492376 20.2406707491  25.0240910384 0.8945170619499999 20.22359168125  24.51719842285 0.7597757036 20.8006045703  24.30718052855 0.8945170619499999 19.9068712114  24.68397616205 -0.6702492376 20.55739121895  25.4008866719 -0.6702492376 20.8741116888  25.2341089327 0.7597757036 21.11732504015  24.6472954049 2.4592833615 19.5730716737  24.8573132992 2.32454200315 20.4668050326  25.0673311935 2.1898006448 21.3605383915  24.3805505012 9.9606755086 15.9671695097  24.24142975915 9.825855368999999 14.76489797565  24.61492401055 9.01041936905 15.25533558515  25.07563713145 9.387288682199999 15.50793714425  24.9365163894 9.252468542599999 14.3056656102  25.3100106408 8.43703254265 14.7961032197  24.8492975199 8.060163229500001 14.5435016606  24.4758032685 8.87559922945 14.0530640511  24.1023090171 9.691035229400001 13.5626264416  25.17795565165 8.98610891445 14.1379412458  25.4112207574 8.32746509495 14.2935375417  25.8719338783 8.704334408099999 14.5461391008  25.9731439949 8.594766960399999 14.0435734228  25.73987888915 9.253410779899999 13.8879771269  19.8269561574 6.2676014266 15.3466512594  19.14605382385 5.7724469734 15.960803528  19.21037352505 6.43005605405 15.53445288945  19.3034343412 6.15547584475 16.13260044145  19.7626364562 5.609992345949999 15.77300189795  18.779912525 6.0433502629 16.9185496235  18.68685170885 6.3179304722 16.3204020715  19.23911464 5.497866764099999 16.55895108  19.698316755 4.9523832653 16.1993525365  18.5937908927 6.5925106815 15.7222545195  26.5998727755 7.4793101712 16.7458323074  26.33892006335 8.354902720550001 16.76306882985  26.87295857065 8.4832401307 17.16233977695  26.8880347088 7.9104502144 16.4244393878  27.1761966421 8.3415902576 16.1030464682  26.62708199665 8.78604276375 16.44167591025  27.16112050395 8.9143801739 16.84094685735  26.6120058585 9.35883268005 17.1795762994  26.0779673512 9.2304952699 16.7803053523  21.6149271221 3.7423465902 21.8781287804  21.9938720235 3.6927033413 20.95722296775  21.82482376965 3.25225561005 21.5862961094  21.37878320395 3.47852973295 21.3977907187  21.1426392858 3.2147128757 20.917452657  22.20376867105 3.20261236115 20.66539029675  21.75772810535 3.42888648405 20.47688490605  21.5886798515 2.9884387528 21.1059580477  22.0347204172 2.7621646299 21.2944634384  25.8711251525 5.4272922951 23.1876190907  25.00887053575 4.5026346627 22.74154400275  25.27374785635 5.0715243688 22.4754393606  24.96473785255 4.97137330905 23.14326740865  25.9152578357 4.95855364875 22.7858956848  25.9593905189 4.4898150024 22.3841722789  25.31788053955 4.60278572245 22.0737159547  24.0583505526 4.515454323 23.0989157266  24.3673605564 4.61560538275 22.43108767855  24.6763705602 4.7157564425 21.7632596305  24.4376893565 5.1939069178 16.7253042713  24.846429137 4.99537691775 17.45279431295  24.87955155105 5.710377766100001 17.3403476817  24.4969194685 5.502115445299999 17.3268320564  25.16983110755 4.89543071105 16.86478215315  24.787199025 4.687168390249999 16.85126652785  24.82032143905 5.4021692386 16.7388198966  25.2029535216 5.6104315594 16.7523355219  25.1367086935 4.1804298627 16.9772287844  22.6364529678 2.0505011369 22.0032530698  23.39999044065 1.73125703175 21.54557548915  23.37235771455 2.00919829915 21.9593832909  23.1490957864 2.29452555575 21.52831585695  22.88734762205 1.4872326129 22.020512702  22.85971489595 1.7651738803 22.43432050375  23.0829768241 1.4798466237 22.8653879377  23.1106095502 1.2019053563 22.45158013595  23.1382422763 0.9239640889 22.0377723342  23.661738605 2.5385499746 21.0533786441  20.03767820355 5.798169976000001 18.56507882275  19.40303912185 5.71218805785 18.95025286195  19.4748928752 5.64461597995 18.1999073181  25.2708611743 5.3458725632 19.1810216745  25.0048629608 3.87182498895 19.37751807895  24.5709188887 4.490970749300001 19.6315729047  25.01012016415 4.27823846455 18.73991092315  25.26560397095 4.9394590876 19.8186288303  25.2603467676 4.533045612 20.4562359861  24.56566168535 4.0845572737 20.2691800605  24.749379154 3.2106043659 18.2988001718  24.31017787855 3.42333665065 19.19046215335  17.9693072335 4.7875758532 18.4271252365  18.33605376295 5.8379637507 19.3093883192  18.4408370414 6.521731394750001 19.00903776475  17.671579458 5.7175414704 18.89764922925  18.7385648169 5.59176577755 18.538513772  18.63378153845 4.9079981335 18.83886432645  17.3738516825 6.6475070876 19.368173222  26.7235319699 6.5788609207 17.0401710625  27.4032291243 6.7975877736 17.5493595992  26.8518866816 6.248708592850001 17.7200708319  26.8086674516 7.073626028650001 17.7427599811  26.8938029333 7.5683911366 18.4453488997  27.488364606 7.29235288155 18.2519485178  26.9370221633 6.7434737008 18.4226597505  26.9802413933 5.918556265 18.3999706013  27.531583836 6.467435445750001 18.2292593686  28.0829262787 7.0163146265 18.0585481359  24.2053920569 7.3595658553 13.5654786953  23.1171176079 8.036536196 13.67669133215  23.96117768725 7.74564716985 13.92565262345  23.8722858121 7.9285352798 13.3118089711  23.4502238527 7.4675667715 13.93036105635  22.6950556485 7.5755676877 14.2952434174  23.20600948305 7.853648086050001 14.2905349845  23.5391795673 8.497504704300001 13.0581392469  23.62807144245 8.314616594349999 13.67198289925  23.7169633176 8.1317284844 14.2858265516  16.8530559716 6.7882608154 15.2809457932  17.14803678105 7.837452938349999 15.61756314855  17.797649582 7.3169790041 15.2925392289  17.69023967265 7.1797149578 15.98338159605  18.5274233737 7.5711691002 16.6858173989  17.9852204821 8.22890708075 16.3199989514  18.63483328305 7.7084331465 15.99497503175  18.7422431924 7.8456971928 15.3041326646  18.09263039145 8.36617112705 15.62915658425  17.4430175905 8.886645061299999 15.9541805039  26.1255354222 3.6795103856 23.1826091669  25.50535550565 2.83720589665 22.69831358485  25.89278668255 2.71344530725 22.86896374315  25.3821847189 3.0972856639
[...]
<PointData  Scalars="c_HbCO2"> 
<DataArray  type="Float64"  Name="c_HbCO2"  format="ascii">6.3847173664026117e-42  -3.7712055567910160e-43  -1.5220726123548064e-43  -1.0738333750408535e-42  1.7957142154196209e-42  4.5294657540060425e-43  -1.6581000280882853e-42  -1.6980934763577565e-43  8.4411050407233145e-42  1.3574419338244056e-42  3.9742178859359811e-41  -5.8646841513570669e-42  9.8175222858659997e-42  -3.9184205454923617e-42  1.3781956822976001e-41  -3.8194925316903101e-42  1.0763366447015701e-41  3.1023904572811088e-41  -7.1368437283944922e-42  9.3600765331391540e-43  1.8806052352694652e-40  -2.6615360172743798e-40  -2.2652614839248853e-40  -8.0900951480605636e-41  -7.6389316768387066e-40  2.7642097864534843e-39  -1.6482823203142112e-40  5.5460088396406746e-40  1.2316150689270863e-41  2.1075143930722878e-40  6.8813794735958546e-41  1.6530348377004149e-40  -1.3842616081957092e-40  -4.3826792746605742e-41  -2.7799194808020908e-41  2.7421892211160587e-41  -9.3065621604970717e-41  -6.0873694297581216e-41  4.5460312641538811e-40  1.9457650635757290e-39  -6.6230611970626657e-40  -6.8660102435972533e-39  -2.3547565462086921e-39  2.3199449788268199e-38  -8.8222180172571176e-39  -5.3086390890806621e-40  -3.5343370057983371e-38  8.1728384701617660e-38  1.3290907588444476e-38  2.8836386636993780e-43  -4.6495267252611784e-44  -4.4539438188645336e-44  -1.9970198994676559e-44  -3.9460063151570652e-44  1.1877481941364828e-44  3.5934752650258667e-45  2.7706625906428052e-44  -3.1937536694075825e-44  2.2634204976886939e-43  5.7061791652033469e-45  -6.9559522183695441e-46  -1.4029948937381480e-45  -1.4833229355995618e-45  1.6482499237956468e-44  -1.7434039240148355e-45  -1.1989633560216726e-45  9.5619798980083688e-46  5.7898035195576415e-47  1.3451321380866729e-45  2.3516748491786642e-42  -7.5939324610291620e-42  -1.3004920953511127e-42  -5.7473949628567344e-43  -1.0816794372574868e-41  4.9571768115904883e-41  -1.1107651990941913e-41  4.8928468534816140e-42  -8.3660972037470715e-43  1.6562522829365006e-42  7.6367622413711303e-39  -6.9043764171253419e-40  -1.3672877123417841e-39  -4.8754763111159507e-40  -5.6043979721960116e-40  5.5146956822750273e-40  -8.9630253111797881e-42  8.5003831575251873e-39  -1.0705357162535170e-39  1.2866051429150082e-39  3.5243359632299054e-44  -1.2310509558961768e-44  -8.1630702837605220e-45  8.2624114742837091e-45  -2.9631695814195995e-45  5.1328859981230424e-45  -6.3847223769788930e-45  1.9663986952083474e-43  -4.6818046343455002e-44  5.7575767720622053e-44  1.7582345431941483e-42  -8.2254865171559566e-43  -4.3394264141045545e-43  -3.0145561385633101e-43  -1.3460224567587802e-43  -3.2738406729933813e-43  2.3813874327848795e-42  -3.2028392448931242e-42  3.6520561273266195e-42  -1.8719330861312405e-43  -3.5530861237796714e-43  1.6907398439092356e-44  1.0216200745265166e-43  7.5133707405620126e-45  1.8874183240363646e-38  -1.9237876083174711e-38  -2.0029986215086777e-38  -2.4987800758237251e-38  5.1257610489837751e-40  8.4863096179898232e-38  3.7717377369126787e-38  -6.0591738787543870e-39  4.8418618925694249e-39  2.0183316720219140e-37  9.4322262390067013e-44  -3.5147898337685798e-44  -5.5082328304305968e-44  6.7067945705564199e-45  1.5033734984392574e-44  -5.7057218289267958e-44  -4.2593284294394858e-45  -1.7554546797223298e-44  1.6056381829335359e-43  1.3405005390617959e-40  -4.3790602441961105e-41  -5.3076684638766236e-42  -3.7184138570757647e-40  3.9844572665979523e-40  -2.8305039155889065e-41  -2.6470742024292948e-41  -7.1963972870201129e-41  1.9966418229467686e-41  5.5214289132299581e-43  -2.5558643572150191e-43  4.9082134175119962e-45  -1.0845086837872116e-42  1.7778827007825725e-43  3.1541648004108818e-43  -9.3118047556938798e-44  3.8353206379703322e-42  8.3687198135435383e-44  9.3079110982676737e-43  1.4267797454190168e-42  -6.1710648159171548e-43  7.0620398060065845e-43  -6.9067972054331599e-43  -5.0666163858002553e-43  4.1813246802694042e-43  1.0044083127038577e-42  2.1923054962544706e-42  3.4005094903391742e-43  1.0762438037648124e-42  -2.8199069747086947e-43  -1.9913054415820995e-43  2.2274163803457526e-43  -4.1744395096064560e-44  -1.7867951521266995e-43  1.1897960008996821e-43  -1.2220996602153342e-45  8.9038932546279196e-44  6.7573447010941937e-43  -4.7867491677444492e-39  5.4200826705409706e-39  1.1390686769599914e-39  3.9058517174110421e-43  -4.7427100999025733e-44  -5.5575896715718830e-43  -1.2902592637917928e-43  3.3851095194758859e-44  2.1330695775632276e-43  -3.0262444454096648e-43  3.4453452202991750e-43  -1.4349623018631646e-43  7.2306460616452958e-38  -3.7805937643828385e-38  -3.1696182583718155e-38  -9.2548159566064943e-38  -8.3120250020909387e-39  -5.4316410034821541e-39  2.2740801079320136e-37  4.8720448766217103e-44  1.3776506449193539e-45  -4.5220496555612656e-44  -2.5236959617183370e-44  3.8237426076193488e-44  -2.7236315378649421e-45  -2.5819578574250548e-44  3.7127596763508730e-44  -1.4138228458176077e-45  3.1413600447175077e-45  7.0031213978263877e-42  -2.3066332397333943e-41  2.2186984253640298e-43  2.8276188718826769e-42  -8.8926075370673073e-42  1.1744156478272290e-40  -1.2160400191992331e-41  9.8978352508541093e-42  9.2649655333054334e-42  1.6896568011677198e-41  5.5978488201006773e-36  -4.4655692348311015e-36  5.3941951635242824e-37  -1.0304568797720581e-36  7.1027252211006713e-37  -1.1903818618045792e-36  1.6392169929531516e-37  5.0488281255580979e-37  -1.8252767228822587e-37  3.1697268006081489e-36  1.6226477471581542e-43  -3.0078741712742759e-44  -4.6073788656016058e-44  -1.3606224115820947e-43  -8.2274122829133932e-46  4.9068409646033790e-44  -6.1944352980930231e-45  4.4029821824249319e-43  -9.0097120126749376e-44  2.0095163695639006e-44  7.0418677198559565e-45  -4.1866141121949588e-45  -1.5054473527503950e-45  -2.6647014121010292e-44  -3.1408575123852805e-46  3.0137648117536828e-45  2.3605539470576480e-46  4.7068822077445550e-44  -4.9610164449805197e-45  3.1595381242864752e-45  -1.4448468738872524e-43  -4.1649536092872506e-43  -3.7854551638919585e-43  5.0882555601105817e-42  -5.9397044400009436e-42  -2.9013101559492343e-42  -4.6809839376032897e-42  3.7390879579095549e-41  1.2043410810861042e-41  -2.0584986397301556e-41  3.3096449804456087e-41  4.9221628969849618e-42  3.1773287874521928e-41  4.7891546069528114e-39  -7.6284770390862307e-40  -1.6516708565483996e-39  -1.9232486006280509e-40  -8.6238757810649113e-41  5.7878726008585673e-39  7.6169422995076397e-40  2.9455297886672527e-40  -1.1182802414515480e-40  3.2822800029205216e-39  3.4711816247985687e-40  -5.0288866851082927e-41  -2.5673493556548687e-41  -6.6168629370561022e-41  -9.0496539178808653e-41  -3.1741748401439079e-41  8.2796342004076877e-41  -8.0112370391214685e-42  9.0934551681054946e-41  3.3930841961083525e-40  1.5434695987663539e-39  -3.2973155763431032e-39  4.0190304116941856e-39  -1.6071754089169292e-39  -2.9926650471851166e-39  6.8822952576428116e-40  2.3511496385729207e-38  -5.1253239745003565e-39  9.8862462913849677e-39  1.0996742229864105e-39  -1.3649742803706210e-39  -2.5458634495315616e-39  3.5605241884639371e-40  -5.7211000740475944e-39  3.5029203677266201e-39  4.4535827261113031e-40  -1.7761548367808290e-43  -8.1992298155496454e-44  -8.2603092121438734e-44  2.3940814430646324e-44  -2.9923859996711160e-43  2.0220283093612276e-42  -6.8261531700543488e-43  -7.6861528380576033e-41  7.7102122158414578e-42  -5.5325555188152772e-41  1.0447234954019091e-41  1.1258972333964204e-39  -2.9075977713788145e-40  -1.9689930248366006e-40  1.2214146091615965e-40  6.8451923435206925e-40  -1.5144406610927092e-40  -3.0736352651075654e-40  -1.9552046422848778e-39  -1.0027068412286788e-39  -5.1930927400510245e-41  8.4106959828801601e-44  -2.2312995122577624e-44  -4.2023221023394808e-44  -1.5600137960121035e-45  3.4585404246033798e-45  -2.6531877644851398e-45  2.8347874033399018e-44  6.8200015319936740e-45  2.0277478881044585e-44  2.3207351329137123e-39  -1.0205544017326199e-39  1.4738859723197599e-40  6.4504979933232086e-40  -1.2894295360508629e-39  -1.0199971074459382e-39  4.2440970621746760e-40  -1.8357430455470647e-39  5.8993223224480241e-40  1.4658559223312571e-41  -4.9613341109199483e-39  2.8515219692739358e-38  1.0181179590841008e-39  3.4133401180599637e-39  -5.1031857036882222e-40  -2.9552177495989690e-40  -2.3200025248405776e-40  4.0682696056731041e-40  -1.7786794689077036e-40  7.2973283198397084e-41  5.0206701683926769e-40  1.8089293077174717e-40  1.0536137014491348e-39  -2.0896131627562493e-44  2.7684453145341569e-44  9.1477184862464919e-44  -7.6202602146187888e-45  -1.5994180955983826e-43  5.3962776033881600e-45  8.6034094730848168e-41  -1.4145583733985775e-40  -1.0971247855998864e-40  -1.2268583238921407e-40  1.3506232980361124e-41  6.4972190566166419e-42  5.2248225225255386e-41  2.0576204883212392e-40  1.7301045769976593e-41  -4.9412082394772604e-41  6.8493441281070182e-42  1.2999766824866358e-41  3.9792377246510987e-41  -8.5741644608068423e-41  1.8797425307602108e-41  3.1546390059906703e-41  -5.0852209128730359e-41  1.8700380885788317e-41  -1.0908668604909836e-41  1.7379685500935946e-43  -7.5510794033680308e-42  -4.7084844294553489e-42  -8.6991370823361713e-42  1.2947850100948863e-42  5.6490864461242332e-41  -7.8977106768280434e-40  -1.4560162963889205e-39  -4.9345349665838276e-40  -1.1234107259426254e-39  3.2887340192264069e-39  5.0839028875148577e-39  4.4167268449491845e-41  -1.1068842384755196e-36  -2.5483683903496627e-36  1.3763285327246637e-35  1.2866947548813296e-36  1.1700070982275192e-45  -2.4359990640361871e-46  -1.6800201348557313e-45  -1.4791670091981807e-46  -1.3793249680787696e-46  8.5997501541959018e-46  -7.7265784725767802e-46  -3.8902934747511124e-47  1.5369971095802626e-46  3.3038340671967962e-43  -1.3888914768559259e-43  -8.1572159246101934e-44  6.3743667914357122e-44  1.6869869441624700e-43  -5.0712321571884115e-44  -6.8026271058884429e-44  4.8444553089064634e-43  2.0307550405832464e-43  -3.2665319360066480e-41  -3.0775683420226554e-41  -6.4076625737953046e-42  1.0580583205907946e-41  -2.4766655354866395e-41  -1.5587484670249064e-42  1.4417769769221151e-41  -2.2031236537995850e-42  -3.3385041006186229e-42  -1.3318477738392513e-42  -8.1741414096235747e-43  -2.5847033060398980e-43  -7.1292298193516166e-43  5.6107682758469850e-42  1.8300548693811223e-42  1.0206685803804020e-45  -4.5505798075274084e-45  -7.6286329857662691e-46  -2.2103565063305299e-46  3.8596088631553349e-46  -1.7738145793112695e-45  -5.1774712838250099e-46  5.8522649098529979e-46  -2.9707866608461323e-46  5.9448642543398468e-45  6.3310072731468805e-44  -2.2904630072406142e-43  -5.3893095721955013e-44  -3.3085726132823694e-44  9.2355988703896201e-45  1.8114553951463971e-43  1.1117561583229068e-43  -2.7520885879508852e-44  1.5326181649869744e-43  4.5695201633484851e-43  6.4734335998793355e-44  9.6084266208946093e-45  -2.8752571259528129e-44  8.6289298096045532e-45  2.4445592061711341e-45  -2.1403059315578196e-45  3.1540143005719811e-44  -3.7077273176353417e-45  6.0024457086663232e-44  -1.5042420327510804e-43  -1.6461813691638425e-44  1.0005346338293538e-44  -1.2418262989407377e-43  -1.1523284885921007e-43  2.0689753307067537e-41  -4.0186376066328952e-42  -1.2934106639220610e-41  6.9145699899964239e-42  1.9566497843965996e-41  -6.2971976102923893e-42  -2.7630003124812771e-42  5.7683832404581891e-42  3.1951114312302835e-41  2.2879095166481111e-42  2.3159083910087832e-37  -9.0933192869606859e-38  -1.4830154626834773e-37  -1.5007046751697301e-38  -4.8565460583228736e-38  3.2115588875403071e-38  -1.0459048902633933e-38  -5.1715463981166540e-39  2.1729693986725883e-37  2.3387509787305378e-38  -5.0915631840852980e-39  -1.2466803353048927e-39  -2.6483187319170889e-39  1.6822967745186028e-39  1.1528704859769173e-39  1.2185156381201691e-40  -1.1341748511220942e-39  8.2260495725661253e-39  1.6923719663505290e-41  -1.7196406290328374e-41  -4.4291877955748875e-41  5.5028494616561371e-42  -4.8785569845094272e-41  1.7846205171306994e-40  3.8410576297986810e-40  -5.7980189420517810e-44  -1.4439928199666788e-45  -1.9852878712955762e-44  -2.9695511330330707e-42  -6.2547115116918949e-41  -1.3086616892755407e-41  2.8627915159814731e-41  1.3856951008446235e-41  7.3525059186328744e-41  9.3373306186814743e-41  9.3130145209337964e-38  -3.4475300776642405e-38  -1.0819156086076425e-38  -3.0350220932595524e-38  -1.4114630800605284e-38  -9.0205433320598485e-38  -1.4534651136254038e-46  8.4216635756111491e-46  -1.3076047658770423e-45  4.4756670975456853e-46  2.6374181795042441e-45  -8.6875131097678079e-46  5.9892234256448856e-46  -1.0886595569199359e-45  7.7411990859728558e-45  6.5760642554435634e-38  7.6127119680775264e-39  -8.7576126039635065e-38  4.2695727398988751e-38  1.4920158063522451e-38  -3.2394556495655181e-38  2.3582218315545988e-38  1.9457144087059978e-37  1.5613232604803156e-38  4.0227557992493492e-38  -6.0469861758044552e-45  -3.1093754859874891e-44  -1.0679459083509721e-44  5.6119895865349886e-45  -1.3681149470160788e-45  1.2013184808034644e-44  -7.6140249945422100e-45  -1.0065885879157360e-43  -1.4131044388285746e-44  -5.7332244099379880e-45  -1.2792452460470677e-43  -2.8277456733061346e-40  -2.8796743147941891e-40  -2.2959288685973726e-40  -8.4336726908052944e-41  -2.4516736202904828e-41  3.4861072943281461e-42  6.7841582006236962e-43  -6.4107497620961079e-43  -7.2451487118182242e-43  2.9067575665894270e-43  -2.5229912742866733e-43  -1.9280254396500756e-43  4.3485413313648074e-43  -3.8597788252323869e-43  3.5766817122405861e-42  -7.0332359928969144e-41  -3.2659368214231332e-41  -4.3847069748452726e-41  -8.7019060748409967e-41  -3.8908879535511024e-42  -7.0795624751822094e-42  -1.0557212119479875e-42  -5.5689048145712578e-42  6.5972408881365141e-42  1.8885140827938216e-40  -5.9255532774114874e-41  -2.9899374637757299e-41  -3.6305645197730744e-41  -9.8729669155980373e-41  -6.7503891606526536e-41  -2.4693717092326186e-42  1.1257834134511970e-42  -6.7465017751991613e-39  -3.3691780350964670e-38  -6.7518907206529861e-39  -3.5608687945710892e-39  3.0887681134042899e-38  -2.7141748190909266e-38  -9.6911437673903264e-39  3.1539143968347376e-41  -7.0983505782708123e-41  7.6472749755160822e-42  1.7971331298514989e-41  -3.7468363984366003e-41  -5.4626619173532297e-41  1.7687365341439690e-44  -2.5053785599485127e-45  -8.6656548152113646e-45  -6.6084535159915800e-46  -1.2223948461349720e-45  1.7992413586428028e-44  -7.7928476196957120e-46  3.8795310024156633e-45  -7.1750159832310515e-45  4.9514201353342140e-47  -1.0951704582500846e-46  -1.8958248913657945e-47  -5.0582527256333971e-48  4.4524423925986074e-48  6.8186738123411979e-47  5.6758924696527565e-48  3.0403836293084395e-47  -1.0091788647545442e-46  2.6869672887739957e-46  3.1066769586564459e-41  -2.1996747503632514e-40  -2.6264231649445245e-40  2.3449067770628080e-41  -4.7145531978943384e-40  2.8333835212814106e-39  -1.2328839035092910e-39  -9.4122455401345619e-38  -2.7377972355704656e-39  1.3249334368264485e-38  -2.7872890819620138e-38  -1.1125984087471947e-39  -5.0441746031708930e-39  6.4020983948342338e-38  7.5776237232881579e-39  -1.8529058742619625e-42  4.6993814008076604e-42  -1.5525128178031687e-42  -1.4786536832287663e-42  6.3883798361913910e-43  -5.9926653492108308e-43  2.8303944488042810e-43  7.6160713093374969e-42  1.1376991673772302e-44  -6.2901730708803135e-45  1.7456965813155549e-46  -7.2219704011009785e-45  -2.4270394178685866e-44  -2.8989371170725176e-45  -1.9520873604684622e-44  1.1040979859601294e-43  2.2435279517907214e-45  8.4647842962959734e-37  1.5317726521745693e-38  3.7897415190006634e-38  -2.1081951965311667e-37  -4.3718097308520367e-38  1.6879648631233809e-37  -2.5258130656173850e-38  5.9950782890323260e-39  -1.1339677495424075e-39  -4.3304565176308206e-39  -1.9412962555162472e-47  -5.6809093136340868e-47  1.4259534468076887e-46  2.0775176574874625e-48  -1.5653911515367383e-46  1.1247856853555900e-45  -2.2902794183880900e-46  -5.5131705504236668e-45  7.5183637754879985e-46  -2.5244312199950842e-46  -3.6498044261524621e-46  -7.9055774947059013e-47  1.8101228625772295e-46  2.7911389990330659e-46  -4.1358532342033704e-46  -1.2061170891798722e-46  -6.0287546799371648e-38  -7.3089892636395711e-38  5.3732143542458039e-39  -6.2940494438387594e-41  -2.6746663761005727e-39  2.7135153289943032e-40  3.4969342960114180e-40  -1.2390316050510025e-39  -1.9383755610803313e-41  -5.3330071108193042e-41  -7.5041375695256882e-41  1.6781195451673857e-41  -3.6833764504470624e-42  1.8942216138457773e-42  -1.5548723440589243e-42  -1.1366917607592315e-42  4.7395883051272363e-42  -1.1332832454512306e-41  6.2184710778102829e-43  3.2981493952286311e-42  6.3305095893506139e-44  1.7311562991552601e-44  -1.8972563547839664e-44  -7.8743962123493094e-45  1.8997799182107801e-45  1.1486852231691806e-43  -1.1694996465571489e-44  3.9405612332579637e-45  1.2361148557772189e-44  1.8155902875268213e-46  -1.2630688715152231e-46  -1.4643697604395416e-46  1.8533768226982164e-48  3.7196665477727475e-47  1.3054056263888307e-46  -2.0020429488670467e-46  2.5456648679619992e-47  1.1324094337686671e-41  -1.0431152114203262e-42  -5.3656499907199880e-42  -6.0457408436065394e-42  -1.1089861053876468e-42  1.0576959304235357e-42  7.0069525145689514e-44  -4.0370026840636549e-42  1.5296403393380361e-41  -1.5151934853122525e-37  -2.0700328620265083e-37  6.0278731483690905e-37  -3.7802890523665071e-38  5.0212532954273531e-37  -4.5478455162874576e-45  -2.3266549876495910e-45  -1.6478279625095739e-45  1.5349405411124835e-45  3.3064837235617575e-46  -4.8010494688035658e-43  6.8159343637420207e-44  -1.0242231241849534e-42  6.0644322029375474e-41  3.2865874821682904e-43  -1.3508778269292071e-44  -1.0248862926900411e-43  -9.8121223061397664e-44  -2.5457537248711795e-44  -1.6685660725076200e-43  -1.0894265601503669e-43  5.3384455860748827e-44  8.0336824134831707e-44  5.5530585575174219e-39  -4.6783271940750102e-39  -1.3654231466487181e-38  -1.5879271684787742e-39  -8.8838223276764165e-38  3.0762612937516450e-40  -3.1845997411384350e-41  -6.0091738829121812e-41  2.3973860235752783e-41  2.7785901789747421e-40  -4.2827417900903359e-41  -2.4503937077072812e-40  5.0292468195347733e-40  -7.9741227359700214e-41  4.5050931886049259e-45  6.4447147142286022e-46  -9.9743653873106923e-46  -9.7870580474718197e-45  -1.7217057067471834e-45  -2.8741359337272747e-46  -3.6064857518077134e-46  4.1973673487312491e-43  3.5922809341787580e-44  -9.8956901901805307e-44  -3.9981320869583595e-43  5.4808850614595738e-44  1.5640066789580540e-43  -2.7231564002987197e-43  1.0055091624529568e-38  -1.4883039696349979e-39  5.2717990695565815e-39  -4.2596094502520814e-39  4.6652825118338606e-38  -6.3177618090235815e-39  -8.0135725464217944e-39  6.7341774496109586e-39  1.4077595388145717e-39  -4.3565049242964152e-39  9.5945733589895680e-39  4.4460258106497062e-41  1.9660096784175980e-39  5.5490845847702452e-38  6.1299993617463023e-37  -1.0153806805280015e-36  -9.2780124288987594e-37  -7.6591372358824921e-37  6.3136065079349600e-36  9.0397608490893458e-37  -2.8595454217920649e-37  2.1053057448631907e-39  -2.0527946455319797e-40  -2.9280821703285043e-40  -2.6452827764541910e-40  -6.4624573456683471e-40  6.7711477624207838e-41  1.8809543156517915e-40  4.9118512934317026e-45  -2.0469450159331200e-45  -2.2021262137705229e-44  2.7681307637785312e-45  -4.6397673691994378e-45  -3.1151124149457601e-45  1.3596974908289833e-46  2.1883382170294558e-42  1.3249087997043717e-42  -1.8186302912659269e-41  -3.3856123485758481e-42  -3.1158640578133003e-42  -1.0317856649982736e-43  -2.6306726933301316e-43  3.9504127034225491e-42  3.7029149047356025e-41  1.1119996942795686e-47  -5.4081163472988701e-48  1.4775296704466419e-48  -1.2168687356561663e-49  2.4528048192374163e-48  -6.8445253108464919e-44  -6.0526715084020049e-44  1.0966194739392419e-44  -1.3188069119211455e-37  1.8177524842692608e-38  4.2117869552945613e-39  -4.1037902581466962e-44  2.0344598327133757e-45  -2.5688506949384923e-44  5.5914259084674475e-44  1.1962524765245872e-39  1.4925768629836112e-40  -3.49181458887