<?xml version="1.0"?>
<VTKFile type="UnstructuredGrid"  version="0.1"  >
<UnstructuredGrid>
<Piece  NumberOfPoints="4513" NumberOfCells="20241">
<Points>
<DataArray  type="Float64"  NumberOfComponents="3"  format="ascii">18.9892642429 3.9687121516 22.9477094135  18.4929341712 4.6073672801 22.16279427915  18.72164314195 3.5960422409 22.0460387539  18.55933203735 3.7651896322 22.62065799615  18.1293998318 3.5616671128 22.2936065788  4.5756763302 2.4891855354 24.1606236597  4.866408225600001 2.1398760342 23.47463782515  4.23020320995 0.9094681488999999 23.7222811658  4.813068223 0.9094681488999999 23.771725147  5.0504601158 -0.6702492376 23.3828266343  4.52093510535 0.5601586477 23.03629533125  5.103800118400001 0.5601586477 23.08573931245  4.46759510275 -0.6702492376 23.3333826531  5.157140121 1.790566533 22.7886519906  7.9849366394 1.9609644847 24.5289701302  8.007303490649999 0.64535762355 23.84958026975  7.506990357099999 0.64535762355 24.01083964535  7.7986457133 0.64535762355 24.49499298305  7.6123547872 -0.6702492376 24.4610158359  7.821012564549999 -0.6702492376 23.8156031226  7.320699431 -0.6702492376 23.9768624982  7.0290440748 -0.6702492376 23.4927091605  7.52935720835 -0.6702492376 23.3314497849  8.029670341899999 -0.6702492376 23.1701904093  6.4879749034 1.865347332 18.3347998514  5.7777216282 2.7353688695 18.21114880975  5.489730234650001 2.4164409827 18.5991263211  6.09275423015 2.4338694656 18.70781345435  5.8849509079 1.8479188491 18.22611271815  6.17294230145 2.1668467359 17.8381352068  5.2819269124 1.8304903662 18.1174255849  5.569918305950001 2.149418253 17.72944807355  5.8579096995 2.4683461398 17.3414705622  5.6975335569 3.0023915992 19.0808270573  7.431159987299999 0.51563775785 23.00768077295  7.935238379749999 0.76800706685 22.58092052395  7.70001576345 -0.6702492376 22.7047047838  7.370361185 -0.6702492376 22.2392191583  7.10150540885 0.51563775785 22.54219514745  7.6055838013 0.76800706685 22.11543489845  7.8408064176 2.2062633713 21.9916506386  7.33672802515 1.9538940623 22.4184108876  6.8326496327 1.7015247533 22.8451711366  5.7751479708 2.3680237912 21.60531952  6.823225563399999 2.7878156467 21.0083522951  7.00799045455 2.9583601205 21.6579394719  5.97516123115 3.03924033045 21.4647739126  6.807977194199999 2.28714358125 21.7984850793  6.62321230305 2.11659910745 21.1488979025  7.65604152645 2.0357188975 21.3420634618  7.4712766353 1.8651744237 20.692476285  6.1751744915 3.7104568697 21.3242283052  7.1587520977 3.3500948332 23.2170620982  6.9957008652 2.52580979325 23.0311166174  7.499779257649999 2.77817910225 22.6043563684  7.35995556105 2.9261641071 23.48602819545  7.5611590244 2.502233381 23.7549942927  7.19690432855 2.10187906715 23.30008271465  7.700982721 2.35424837615 22.87332246565  5.8971783639 -0.6702492376 22.1398850104  5.527159242450001 0.5601586477 22.4642685005  6.3649139983 0.51563775785 22.4925280735  5.83616316735 0.8488872768000001 21.8726022652  5.4661440459 2.0792951621 22.1969857553  6.30389880175 2.03477427225 22.2252453283  5.99489487685 1.74604564315 22.8169115636  5.9721842876 1.4598513013 18.9416861742  6.57953626205 1.7299385473 19.62111000525  6.5712044832 1.07036823455 19.40156943605  6.6330246825 1.36769248285 18.97692563345  5.9103640883 1.162527053 19.3663299768  5.91869586715 1.82209736575 19.585870546  5.848543889 0.8652028047 19.7909737794  5.85687566785 1.52477311745 20.0105143486  7.2938650774 1.2755336644 19.0121650927  5.8652074467 2.1843434302 20.2300549178  5.218091499850001 1.69188890665 23.83866298805  5.759590370950001 2.00948122125 23.4912464533  5.46885847555 2.35879072245 24.17723228785  4.92735960445 2.04119840785 24.5246488226  6.3620406209 2.2283959095 24.193840916  5.8205417498 1.9108035949 24.54125745075  5.2790428787 1.5932112803 24.8886739855  4.97247137955 0.91752204125 25.127242883  5.3428930103 1.17397580315 24.86746910225  4.76998245905 0.46148102135 24.72894446765  4.90862124795 1.3367575184 25.14844776625  4.5381996172 1.0803037565 25.408221547  4.3995608283 0.20502725945 24.9887182484  4.2609220394 -0.6702492376 24.5692149498  4.833832590649999 0.04224554419999998 24.7077395844  5.4067431419 0.754740326 24.846264219  4.5194517323 4.2275239397 19.2852925977  4.789611034 2.7670571278 18.9604937868  4.75658551575 3.4033987615 18.5780217535  4.2005701217 3.37962329805 19.062726557  5.1084926446 3.61495776945 19.1830598275  4.167544603450001 4.01596493175 18.6802545237  3.8156374746 3.8044059238 18.0752164497  3.84866299285 3.1680642901 18.457688483  3.8816885111 2.5317226564 18.8401605163  4.5115240231 1.0140502656 18.9755854858  4.8734479789 2.3580330433 19.53510771705  4.7133947107 2.32438515995 20.2600608101  5.1883657349 1.5991968479 19.6028202018  4.0365529989 1.73923857765 19.6328260941  3.5615819747 2.4644268897 20.2900667024  5.69772072775 0.5601586477 23.4930848579  6.300170977700001 0.7790733359500001 24.1956793206  5.758672106600001 0.46148102135 24.54309585535  6.2383013345 -0.6702492376 24.1975177252  4.7030625679 -0.6702492376 20.3801989496  5.2841350073 0.7570470963000001 20.3051269337  4.1323222713 0.89708882605 20.335132826  4.6072932955 0.1719005139999999 19.6778922177  5.7626043814 4.6968855976 18.7099502383  5.73006896915 3.8496385984 18.8953886478  6.4638883302 4.0685836801 18.60202194745  6.2932063097 3.94305185315 19.4364119785  6.823808238 3.1892181087 20.1628737187  6.26067089745 3.09580485395 19.621850388  6.9944902585 3.31474993565 19.32848368765  7.165172279 3.4402817626 18.4940936566  6.43135291795 3.2213366809 18.78746035695  5.229786264 4.0012405295 17.8660422352  5.46365991045 3.50181606435 18.47343464625  6.197479271500001 3.72076114605 18.1800679459  5.54384798175 3.23479333465 17.6037563987  6.51154098925 2.9543139512 17.9177821094  4.7015396721 3.2744475963 17.1878751405  5.199536614499999 3.13841959775 18.1343510989  5.2797246858 2.87139686805 17.26467285135  4.99173329225 2.55246898125 17.6526503627  6.6110059874 -0.6702492376 21.3800787799  7.04114131135 0.59746259305 21.03627753245  6.72807986275 -0.008641831350000018 20.89550488245  7.0691339809 -0.6702492376 21.24161545185  7.5272619744 -0.6702492376 21.1031521238  7.499269304849999 0.59746259305 20.8978142044  7.18620785625 -0.008641831350000018 20.7570415544  6.8451537381 0.6529655749 20.410930985  7.1582151867 1.2590699993 20.551703635  5.10452879 2.0082209324 19.02820627155  5.83485892225 2.23112145025 19.01125661575  5.6270556 1.64517083375 18.52955587955  5.24185415535 1.23695078345 18.95863583  3.6694112273 3.6977260032 21.851587327  4.2831383621 3.39392475255 21.25003288125  3.6897265186 3.831283377 21.15693048155  4.06854899475 3.99054750635 21.637435685  4.4676867622 4.2833690095 21.423284043  4.68227612955 3.6867462557 21.03588123925  4.08886428605 4.12410488015 20.94277883955  3.7100418099 3.9648407508 20.4622736361  4.3034536534 3.52748212635 20.5553760358  4.8968654969 3.0901235019 20.6484784355  6.17659117505 2.0248453811 19.2824273846  6.230079595499999 1.66259931665 18.6382430128  5.7813705018 2.5933675147 19.65544098755  5.05307164305 2.05931840055 20.949090428  5.3810364718 2.63723346605 20.43926667665  4.56890066815 2.5122084364 21.15830218685  4.2292237358 2.7772751958 20.46927256895  4.2409358394 1.9342933709 21.6681259382  3.90125890705 2.1993601303 20.9790963203  4.1161665442 -0.6702492376 22.2900532188  4.6366533326 0.5601586477 22.5393526047  4.1785511918 0.63202206665 21.9790895785  3.6576499845 0.5938313733 22.70822090635  4.6990379802 1.86242995195 22.2283889644  4.1781367729 1.8242392586 22.95752029225  4.581807711750001 2.1811065113 18.4787930506  6.72182781005 0.51563775785 22.11262495825  6.1930769791 0.8488872768000001 21.49269914995  6.254092175649999 -0.6702492376 21.75998189515  6.7603963593 2.78924537135 23.7054515071  6.597345126800001 1.9649603314 23.5195060263  6.96159982265 2.36531464525 23.97441760435  6.63376977445 -0.6702492376 22.18955208435  6.990683586199999 -0.6702492376 21.8096489691  7.225906202499999 0.76800706685 21.68586470925  6.2172800555 -0.6702492376 23.1366146385  6.524964844099999 0.51563775785 22.99089288755  6.79382062025 -0.6702492376 22.6879168984  6.0572292097 -0.6702492376 22.63824982445  4.389277004 2.81092307915 19.7443194759  5.2971995269 3.04625755055 19.8646527464  3.615496601 3.08107644645 21.0708270147  3.95517353335 2.81600968705 21.7598566326  5.7378958269 -0.6702492376 20.938183237  5.8015516368 0.7570470963000001 20.5841190774  4.98941583315 0.63202206665 21.3031545876  5.75652189885 0.8488872768000001 21.2717513785  5.82017770875 2.2761836107 20.9176872189  5.0080419051 2.15115858105 21.6367227291  7.147542436649999 2.5271962662 20.42767500185  6.2994781044 2.77862094995 20.88409661935  6.49949136475 3.4498374892 20.74355101195  8.329879532650001 0.76800706685 21.5820135126  8.4208433943 0.76800706685 22.18202314625  8.185620778000001 -0.6702492376 22.3058074061  8.094656916350001 -0.6702492376 21.70579777245  9.000880370999999 -0.6702492376 22.3723956539  8.909916509349999 -0.6702492376 21.77238602025  8.8189526477 -0.6702492376 21.1723763866  4.2916140916 2.90308512635 18.0140178284  4.55573738755 3.26648159295 18.35310137575  4.25858857335 3.53942676005 17.6315457951  4.5227118693 3.90282322665 17.97062934245  4.96566296805 3.6378440629 17.52695868785  4.4182991848 0.9094681488999999 24.36491930475  4.6367694651 1.88185847365 24.92668042165  4.12770904545 0.7501282147 24.7669509038  4.6556910776 -0.6702492376 23.97602079205  6.6558915707 2.52728272035 19.24883678505  6.34450784235 2.68678076945 20.19646431825  5.0377529213 3.9404453971 22.5209816776  5.32143062685 3.9969129396 21.3737561741  5.6064637064 3.8254511334 21.9226049914  4.9673092091 3.5152844495 21.58473005655  4.75271984175 4.1119072033 21.9721328603  5.5360199942 3.4002901858 20.98635337035  8.145114641499999 0.59746259305 20.9324263358  8.17310731105 -0.6702492376 21.1377642552  7.684034196 0.76800706685 21.5474013812  6.3551805924 1.41865450255 20.3204929514  6.34684881355 0.7590841898 2
[...]
<PointData  Scalars="c_HbCO2"> 
<DataArray  type="Float64"  Name="c_HbCO2"  format="ascii">1.9457144087059978e-37  -3.0604220739225644e-37  -1.0053462903484046e-37  -4.6374674423694238e-37  1.7095529511523707e-36  4.0289210632644872e-25  -9.8134772392807516e-27  -1.5580186720857865e-25  -2.2149362791449834e-26  5.0571400367495641e-26  -2.3501155095802939e-25  2.9737001722861844e-26  4.7793097136070739e-26  7.4264935467708779e-26  3.5627867633296988e-28  -5.0811826528282112e-29  2.2056606842207931e-28  -1.2862592957039848e-28  2.6412085312572223e-28  -2.5184416681831273e-28  1.6688457347547679e-28  7.6841988536880124e-28  -9.1005893508101501e-29  1.8044821697073434e-28  1.0119417022295918e-26  -1.9804325571684866e-26  2.1219030531863808e-26  -1.3502664810648684e-26  -4.0260541817317031e-26  -1.3525987073523079e-26  1.7271331284028370e-25  2.8490993506893974e-27  3.0177079253503409e-26  7.2729479403665698e-26  -3.9753625513296038e-28  -3.8878782160793491e-28  1.1362375624907804e-29  5.7808715955427085e-28  -9.4220558164904871e-28  -4.3847143764556602e-28  6.2521061485847621e-28  -5.7960368547022780e-28  4.6445697969308778e-27  2.5711056601569581e-26  -2.5666320116740643e-27  -2.2065905954062371e-27  -1.1718139392888919e-27  -1.7480822688091036e-27  -7.7837514230476718e-27  -5.2160562941031362e-29  2.1935666897131488e-27  7.1611815440590379e-27  1.5842756852634723e-27  -5.8051815821130793e-28  1.3603328019042376e-30  -5.3900590155984145e-28  6.2870516425377762e-28  -1.1428107697367107e-27  -5.0149368347386047e-28  1.5464369774941034e-26  -7.6345393317812780e-27  -4.2303707149856144e-28  -4.2779171251680842e-27  1.4261547146871413e-27  -1.0373314635627837e-26  -1.0591287670185571e-26  3.8417330572532595e-26  -5.3222171640158561e-27  -3.4792009079380555e-27  -3.8555907776501397e-27  -5.9647207472948959e-27  1.5319789400384053e-27  2.6457268350241222e-26  -1.1046859270860948e-26  1.2954704773671415e-27  6.6080785813965398e-26  -4.1641667197667412e-26  -2.3094106323206796e-26  -4.7950648425927422e-26  -1.2343836682102729e-26  1.2522293385782296e-26  -1.4813319361828619e-27  6.8278385276099759e-26  -3.6130005379161513e-26  -2.5805809633514245e-26  6.0420435714487158e-26  1.5885070664874784e-25  5.2819291875513833e-26  -2.4650993467467146e-25  2.5739165903234200e-25  -4.7401672534475251e-26  2.7886085639331852e-26  3.4409054241209950e-25  -1.5673982441107762e-25  -3.6016200911919362e-25  -8.8211558172633759e-25  4.4526801922653023e-26  -7.4659710299137013e-25  3.0720205702991456e-24  8.1544160305483272e-25  2.2393510235253250e-24  5.7871029968418664e-25  -3.5056557958948340e-25  -3.5028167205495660e-25  1.5886153518890225e-26  -4.7850577336574347e-25  2.8760842410645782e-24  -7.1385207372528388e-27  -7.5592501992316746e-27  -4.8787148619630479e-27  8.3173820610028028e-27  1.9903565754873628e-25  -7.2404559829856139e-26  -9.6978710433936601e-26  -1.5336711427794883e-27  2.2400964577114878e-26  -3.4789369013060086e-26  -2.8323547375044413e-27  -1.8230284062160701e-27  5.8004464737949626e-27  -1.5158524263598426e-26  -3.6022690665120864e-27  3.4985154282175258e-27  -1.2159138185741971e-26  9.9283568794307042e-26  6.1195236455415966e-26  -1.8114657988883925e-26  -3.0238344416004479e-26  -3.6184905964145240e-27  3.5660202137246282e-25  -9.7268005617691042e-26  -3.5591106053456952e-26  -2.1328316770769982e-26  2.0582026134708490e-27  2.6221930376146977e-29  1.5253031828647562e-27  -5.8193509294185245e-28  2.5709175364816381e-28  -4.9745999490298729e-28  -6.2217002966743319e-28  1.9520292211315806e-27  2.1664510426658161e-27  -1.3209736078951522e-25  4.6412803881300116e-27  1.0173278335689394e-26  -7.9671065945229757e-26  4.4430916447134417e-25  -5.7136112405101494e-26  -1.2369566584473437e-25  -6.6095620726497303e-26  4.4338816142435412e-26  -4.3007100544553629e-26  -2.9936687718948975e-26  3.5902797407252975e-25  6.7980331243599061e-26  1.2531592133773725e-25  -2.1494519805754916e-26  -7.6640320282749658e-27  4.2379751785078270e-26  -5.4439137221570684e-27  6.6637396969650188e-26  -2.4295560472740020e-25  -3.0792781635196838e-25  4.4930973035707814e-25  1.7681017895868093e-25  1.5320463410507207e-25  -1.6794653638924896e-26  -6.1998483604908764e-26  -1.1893389770089525e-25  -4.3175622010789389e-26  -2.2348098677250682e-25  -2.4535963788271405e-25  -1.3697868861989055e-27  -3.9461642719787392e-28  -3.5044669110903701e-27  1.3692723050858143e-27  1.8829904236499616e-27  -3.1301447644384573e-27  -2.1214955134514890e-27  2.6893858843733590e-28  -3.2116776301743991e-28  4.3638312754626141e-27  1.2936441336880783e-27  -1.8728778139937081e-28  -8.8035719172398959e-28  -2.8799097053896348e-25  4.4816532132313720e-26  -4.1484766383580574e-25  1.8388395210495718e-25  3.0900053632236107e-26  7.7168005307744672e-27  -3.5113130559999899e-26  -3.8575614623769515e-26  -1.0702888454968239e-26  -4.5139092194590302e-26  8.7651834608820300e-28  -5.9020326995622050e-27  4.8528933553220566e-27  -1.2893485930252756e-28  -2.2710450710511933e-29  -9.1863774458966208e-29  -2.1355108848749840e-29  3.6375454635316026e-29  3.0038140061250020e-29  4.3725281662420889e-29  -3.8812228595494933e-25  -4.5863374095669423e-25  -2.5690788550388374e-25  -3.4476345914228151e-25  9.3910105105446440e-26  -2.3246813879126993e-25  -2.0156739991652649e-25  -3.8178086042226985e-25  -4.0820009857424737e-26  -1.3758951224973484e-26  -5.6411823745489315e-27  4.0235687586228605e-26  -9.0206778805438573e-27  -3.7348330782450038e-27  -2.5189009510809446e-26  1.5072130367555477e-27  -1.4259429753854955e-26  -8.8410855178671691e-29  1.0254059630481113e-29  -2.1753568556223749e-28  -8.5948032912891961e-27  -5.7508411189602633e-27  1.3323192968836765e-27  -1.5075168117137839e-25  1.4063326348303963e-26  -1.7503412471992441e-26  1.7162227636918028e-26  -5.2707046219441329e-26  -8.2957683598313926e-27  7.0603603272088150e-27  -1.1113496545371581e-27  -8.1596424144250978e-28  -1.3829502011946822e-27  -7.9661681394449780e-28  -7.5720743533850712e-26  1.1973420535043997e-25  -1.0404853924999607e-26  8.0834273932343584e-26  -1.4586861834305325e-25  5.8989803575879995e-25  3.4280975733734079e-25  -4.1643975571490285e-26  4.3704298018426577e-27  -1.5470279777771724e-26  -6.3586525433665390e-28  -1.3112506867766025e-27  -5.1353453524014929e-27  -6.2567624785837158e-28  -3.2162904994266362e-26  1.7980674764649870e-27  -4.5365286225536470e-27  -5.8654194985356604e-27  1.6916770643768290e-28  -9.2577134161695310e-27  -6.0653650072934501e-26  1.0159652660909119e-26  7.7311941019005176e-27  8.2444063012794380e-25  -1.1541227633656533e-25  -1.5359394872034894e-25  -2.2578400831819583e-27  -7.3292869230404923e-27  -7.4125747219417379e-27  5.0149708866816172e-27  -2.0933760307862684e-26  -1.0358563296432456e-26  -1.4660061590491566e-25  -1.0083857850022855e-25  1.3390466165610869e-27  -5.9094718387659629e-28  -1.7620416301645263e-27  -5.7697178996792119e-27  3.6459380846092440e-27  -1.9625302330848792e-30  -8.8717139334742139e-27  2.1795794219465337e-25  -1.2033592147413500e-26  -7.2359698772083102e-25  2.0982950493294167e-25  4.1279203459444718e-26  4.5517357698146392e-27  5.6069103552550196e-27  -5.3073579041820954e-26  -8.3608585480352043e-28  -1.5142756171466039e-27  -3.9540006545275729e-26  -4.9497520533108590e-27  -3.9657670447571227e-27  -1.0777235651618748e-26  4.2089581052159051e-26  9.5747486634049625e-28  1.4287254017336941e-28  -5.9759928266787686e-25  -6.8407785880837112e-26  -8.2512800180851320e-28  4.3172910781534631e-28  -5.0645564902442041e-28  -1.9849320906515132e-28  -7.2672059653431919e-27  -1.1055893162409164e-27  -3.3618097653417113e-28  -1.2322144022463511e-26  -9.1655210463128597e-28  -8.8969146623065590e-27  -9.5117506335453046e-27  8.1979475496873618e-27  2.4199102162306903e-27  -2.8066530225074470e-28  3.0165679117333784e-29  1.6759288080740453e-28  -7.1240925879223819e-28  -4.5169846438738241e-28  -7.4749499408998633e-27  6.9716722917190989e-27  -2.2105881370074479e-26  -1.4781637890402182e-27  -8.1388169970430454e-28  -2.4868283676543261e-26  -2.6912177464614435e-28  -5.0624421278793225e-27  -5.6676393445110784e-28  -1.5829155072574225e-25  -1.8002811378924387e-27  -5.8087219762204510e-27  -1.8150108075535317e-25  -3.2875486917229673e-26  -4.2591065155551827e-26  -5.0254381201346383e-27  -3.2052519848012880e-26  -1.5936186945462218e-28  -1.5914207908641911e-27  -1.0968539088557245e-28  -1.3466897753674328e-27  -2.0283867334711961e-27  1.1413512285838299e-27  3.1242324043756522e-28  -2.0166349167575896e-28  -8.1811326979747033e-27  -5.4925023203556948e-26  -3.4657973471602950e-26  -2.5708536085763243e-25  3.4935046696247138e-24  -2.0988311875116858e-25  1.4620722503801919e-24  -1.1947852670103909e-29  -3.7291610999326726e-29  -1.3971250273624342e-28  -1.1027482775303508e-28  3.7839491895528607e-28  7.2986494456666393e-29  3.2324086386041225e-27  3.7323277233465947e-27  -5.4522164872865117e-29  -2.4017115793711369e-28  -2.6293637474692028e-25  -1.2988171376743262e-25  1.8816002401951934e-26  -1.5423966841788951e-25  -7.2083407069057221e-28  -3.9222844691071787e-29  9.3794393009366705e-28  -5.7269634741640000e-26  -4.2333352816535110e-26  -7.6872187481597706e-25  2.5345929112111564e-28  -1.7442266616891832e-28  3.2611964414497793e-27  -6.8522555872542091e-28  -1.1977441267642515e-27  -8.8257293918468842e-27  -4.2922977910305851e-28  -1.0722542415794743e-27  -7.0531148138569972e-28  -3.0337232964763313e-27  -5.7867969670391678e-25  1.1578034603115451e-35  -1.6376875762719093e-35  -3.5589533143099626e-36  -5.2726378459544525e-36  1.4654408019509864e-35  -4.8689087867919372e-36  9.3284213846079778e-36  -1.0848802467932260e-36  1.2517192276064504e-36  3.1073916497023982e-35  2.9776206505164605e-29  -1.0027664225548373e-29  -4.0636809614475256e-29  -4.8801557610294375e-29  -6.8829396639426319e-31  3.8745097808770961e-29  -7.2541669489229324e-29  1.1736259043595642e-30  4.8919845957099745e-30  3.0830627915549504e-28  3.4096328257901622e-37  4.1783753708219711e-38  1.0359737013752248e-39  -2.1550815913697845e-37  2.1614811033648637e-37  -1.2492778398475793e-36  -5.5131688458938052e-38  -4.3488133668017626e-37  3.3320994352087325e-36  5.3728133233210691e-31  -5.4745913451319208e-31  -7.2650093908274567e-31  -2.4725941743505681e-31  7.4963077502038883e-32  1.9300912546200411e-30  -8.3127080911175413e-31  -2.3795849230873772e-31  1.3944831706902128e-31  5.8698499656034773e-30  -3.6088001846622106e-30  -5.1395452782633076e-31  -1.6701953477987555e-30  -7.9150905313888682e-30  -9.5484949127475161e-30  4.9406477188153890e-29  1.5889021466295632e-29  9.9155280656417842e-30  3.6889672663898243e-29  6.5350849627190696e-30  -3.5423303614902878e-30  -5.6137382377259140e-30  1.0119279084031376e-30  9.9576082059154106e-31  7.2556692791759038e-31  -9.4387398644490253e-32  2.0794822893595802e-30  3.4664046321758826e-30  2.4542436803512052e-30  -3.0341126474684926e-31  -6.0118517159185901e-32  -5.3180249795022266e-32  4.9746270151232953e-32  -1.4028866442811161e-34  8.4161874882036636e-32  9.3273817771058262e-32  2.1674449744619693e-32  1.7158811963402450e-31  -8.0562762151922031e-31  1.8430315600756492e-31  -4.0556299062132941e-31  3.7789929239606541e-31  -3.7927705371293118e-31  2.2652257154212048e-31  1.2482413269255928e-27  -1.0644836693366630e-27  -2.0506662411292126e-27  -5.7472485618297201e-27  3.6541931913100576e-30  -9.4716631174942519e-31  -3.7201334373528033e-31  5.4372147725900556e-32  -3.4664772655231620e-30  -5.0081265143239954e-31  4.3335652558337385e-30  -5.5393106396738660e-31  1.4031865062121891e-30  4.2548103650596358e-30  -3.4899900025362842e-31  -2.7961502321551532e-30  4.8357566339636252e-30  5.4887836068285495e-31  2.4785997667734145e-34  -1.6538265752488423e-34  -3.5522850409486492e-34  -3.2598284228321827e-34  -5.6794236815272489e-34  8.5266382677861608e-35  1.5781080995736036e-34  1.9128935854146001e-33  -3.1471350042372288e-33  3.1234952973912668e-33  2.1451943742247525e-34  -2.3040732874176189e-35  -3.1993272319504334e-35  -1.1973764867997780e-35  -3.7380419706493250e-35  1.1576939133663822e-35  2.0708690855254695e-36  2.4334863407266899e-36  -1.7349907437994458e-36  3.2237762265124291e-27  1.4272629442661912e-27  -3.3649203797870755e-27  -1.5965155594450116e-26  8.7261871740813838e-36  -4.8985066048725416e-36  -1.2442551019748862e-35  -2.4221966093938432e-35  -6.5536312208853647e-36  -1.2563492097091166e-36  1.2581230834889553e-35  3.1037514511742885e-36  5.0567706005573717e-36  6.9932223034759166e-35  -1.3755129078220370e-27  -8.2743953344203689e-27  -1.7164385889837023e-27  4.6619945132743504e-28  -1.3066671939595907e-28  1.4804681832678385e-36  -8.5985415890697799e-37  -1.3329367453147267e-36  -2.8724782411626980e-36  1.4042861906525950e-37  3.6544892602898728e-37  -2.6296679515216940e-37  1.5916959470251163e-35  -7.4251774536769927e-37  2.3203937281867993e-36  3.0043464219607020e-36  -6.1097095969036756e-36  -4.1713019471605842e-36  1.4297367275068591e-36  6.7897784871865990e-36  -3.4814979978691563e-36  -7.5968130796825362e-36  -1.3507624701861745e-37  1.3242019018390025e-36  -2.6799488165476150e-29  -1.0820464989673390e-28  -7.7442927604082445e-29  9.5139527379681591e-29  -1.6858968298948843e-28  6.2464684006488938e-28  -9.8261475840061216e-29  4.8319879323868057e-37  1.4549802383726112e-37  -5.3405612994226823e-37  -7.8823860283583530e-37  -2.5027602654776459e-37  -3.9362445367819720e-37  -2.5690847360397262e-37  1.1651756513459446e-37  1.5263785176824200e-29  -8.0981591941608826e-31  2.6923802425327289e-32  -2.7966438407670560e-30  -2.2470434260349429e-30  7.0109170479672757e-31  2.2477433160097980e-31  -1.9939392754810162e-31  1.1813187449442334e-30  1.1420025739918721e-30  1.4177406260743309e-30  -2.6362753560468744e-31  -1.3406554254005914e-31  -4.5105120135338802e-31  1.1366616386924078e-31  -2.9688056831078141e-32  7.5280184085479901e-32  5.2936165632404056e-32  1.6326420401062695e-31  2.4641212900467186e-31  9.1108294354809402e-34  -6.2617065568172433e-35  -6.5890762890537354e-35  -3.7349164955739177e-34  -7.0823672278121730e-34  -8.9489820087872078e-35  4.1649493998097938e-35  -2.1877665762927006e-34  1.0490443753894608e-33  1.4916342073156429e-34  1.6014412158855278e-30  -1.9529435140669063e-31  -2.1833589075273255e-30  1.5284791448074032e-31  4.3291054297909789e-31  -9.2370413236932279e-31  -2.9569027181962709e-31  -5.3133181541273351e-31  1.9925595447369849e-30  9.9428759513778234e-33  -2.4317948308076431e-32  -1.6135787075913389e-32  -1.5761174647484253e-32  4.1448884871295661e-33  -4.2928970686655502e-35  1.9182845205230089e-32  2.3637914945188885e-32  -1.1102067857947841e-32  1.6194884786166400e-31  1.1417596566779094e-35  -2.6762215848297843e-35  -4.4987327183004497e-35  -1.3689878963211242e-35  -1.1496258715889783e-34  1.1923000112674933e-35  3.9382291406056280e-34  -7.6916299622492069e-35  2.5999758996815564e-35  -3.9986744999435156e-37  -1.9660832715535120e-37  2.2288580166271901e-38  -1.0301684360979218e-37  1.1857633463237763e-37  3.1593072315478361e-36  -2.3549144099681677e-36  -9.1701729250528836e-37  -1.2682950503505041e-36  1.7658682014112844e-35  2.6248871679297491e-36  -3.6679674931478635e-36  1.3976463364022039e-36  -2.7986102778852638e-36  1.4985198947360047e-35  -1.5759590829736853e-36  -1.1235987371281425e-36  -7.6381856355452059e-37  -2.6982018671079093e-36  -8.5535252936515381e-37  -2.5713578029875626e-36  8.8869261554181424e-37  1.1731860367309090e-36  2.2699877598078778e-36  1.0889134966634945e-27  6.6196340951927208e-29  -2.2278197117620017e-27  6.4243392494535867e-28  1.0309164531958614e-28  -2.7267558233261959e-28  4.1192770145437432e-28  -2.0666202551053422e-31  -2.9100640391547514e-31  -1.7310450613189099e-30  -7.4911594998451376e-31  9.3732466390675473e-32  -1.1312661230071262e-31  1.7675983149876327e-31  -1.7930966039797557e-36  1.4363278894475659e-37  6.2408639524625179e-37  -2.9962267662553734e-36  -2.1820627185047006e-35  1.7291242076866510e-35  5.1485594183944355e-29  -3.1876065526111626e-29  -3.5099665156182137e-30  -3.6610227820514737e-30  1.1105907651728820e-29  -3.6221112639258994e-30  2.4222004556161357e-29  5.0329912356885669e-30  6.5436777710299074e-31  3.4431338456699582e-29  1.4968124391810539e-31  6.7339174555465401e-31  9.2844858903919762e-32  -3.4244887969241638e-31  2.1794435601392255e-31  3.5800063226601120e-30  -1.5681132118108863e-31  -4.8216135832996414e-31  2.7361579671409475e-31  -5.8956955195125115e-31  1.8531919026894684e-30  -2.4122597219142723e-29  4.0605276348986853e-29  4.0646366468273729e-31  -1.4638286325582856e-30  1.4828590792956544e-30  7.1920489415395754e-30  1.1485004515647938e-30  -2.4692404034242807e-31  -3.5500239160608977e-31  -6.2737589973853714e-31  1.4815861161107368e-31  4.2671885450147805e-31  -3.1665406218661002e-31  1.9446350681733134e-33  -7.4158154402557881e-34  4.1075169383490285e-34  -1.2689281931860251e-33  -1.7373853422920464e-33  3.1552560098194023e-33  5.1062552086026865e-34  8.6906533645320751e-33  -4.1937572752325343e-34  1.1182849724563264e-33  -1.8924007264563156e-35  -3.1051197629963468e-36  1.2964374187451307e-36  -2.1813205240714997e-35  2.4542035314935751e-29  -2.3089643622841946e-29  -1.6175748802783082e-31  9.6241832449523784e-29  -3.5477325524997277e-30  -8.2976787446068357e-30  1.4205544631441396e-29  4.1915176832050732e-29  9.4228302382978440e-30  -1.2035408504920610e-30  -1.5088459536597252e-29  4.9432929132056908e-30  -1.0438498026128901e-30  -2.0922753467458692e-30  2.3778243498961576e-29  1.1285751025348636e-37  6.5408267035807916e-37  -5.7136525497836892e-37  -2.6631839363852121e-37  -4.0556242095442363e-37  2.5816669040440198e-37  6.4809558585899080e-37  8.5395247276251117e-37  2.3141481753503134e-32  -2.6318239785584039e-32  -1.2783091061324972e-32  8.8347687461807812e-33  -7.0910083606894559e-32  -5.9839450117984145e-32  1.3451827146083657e-32  2.2855525982048948e-33  1.0739585817493563e-32  -1.2191024798286287e-37  -1.5641918205764331e-35  1.3555503074136097e-36  9.9825978844779551e-36  5.5359542907942922e-36  6.3783654118891402e-36  -1.1415525800424292e-27  -1.5581703807109190e-27  -3.5866005329070115e-28  4.6555485414121442e-28  1.2957841231240719e-28  -9.3815965765935096e-28  2.9866666587698764e-28  2.5794014024510299e-37  -2.5804834089819107e-37  -3.2631879504052908e-37  -1.7678165355940822e-37  2.4980531662081577e-38  1.0987441143965717e-37  -1.1083585407773203e-37  -1.8266536834323682e-37  -9.7753205162270950e-30  -1.0372479565108216e-29  -5.2232962409074349e-31  -6.0297797477997781e-30  2.2761095499524255e-30  -1.0567559774552769e-36  -2.2841926741251827e-37  -5.7803942244833162e-37  -1.8843938302802600e-36  6.0536462765324573e-37  9.6103799006959114e-38  -1.1516411281042296e-37  -9.0325949005498850e-38  3.4410798261571654e-38  5.1269382972742457e-38  -8.0413046161936631e-30  -7.5877067266444607e-30  -5.8594382713879306e-30  1.4994757094231909e-29  1.2156385543961359e-30  7.3335915470768942e-30  5.8409335868413557e-31  3.3142984641732907e-31  -1.2297516737671464e-30  1.5177407891331831e-31  1.4870242280915315e-31  -2.7290611469606797e-31  1.2894739745356409e-31  1.0336966467463629e-31  -4.5217366165949493e-31  -1.2325261896323696e-31  6.4987306811394849e-32  -1.4812955721465423e-31  -2.4347037686176465e-31  1.1120265194264559e-31  6.7981262859372953e-31  -4.4173247269906463e-35  4.7680314939812728e-35  -3.0827949586342510e-35  1.8196295417895654e-35  8.3435381182014506e-36  -2.8279057273306532e-35  2.5769860609853577e-34  -4.5693756719214815e-35  4.6167379680936997e-32  -1.1399945404897167e-31  1.3374568242248082e-32  -5.6769589915635414e-32  -2.1071501558697049e-31  -6.7395233696478273e-31  -1.4138639780751845e-33  -2.5080176427498814e-32  -7.9570748052855905e-33  -1.2555390285352210e-32  6.6433620380508446e-32  -3.0127190673170083e-32  2.0274219987255337e-32  4.8093403523162699e-34  -1.1926065111442522e-33  2.1241042104868454e-34  -7.6064615406859605e-34  1.8037721378443642e-36  -3.4318446817947876e-36  1.2039260840754095e-36  -3.6057