<?xml version="1.0"?>
<VTKFile type="UnstructuredGrid"  version="0.1"  >
<UnstructuredGrid>
<Piece  NumberOfPoints="4454" NumberOfCells="20465">
<Points>
<DataArray  type="Float64"  NumberOfComponents="3"  format="ascii">22.2628981721 26.9041942557 35.4923567183  22.28492471965 26.8175814425 34.426055977  22.8805385526 26.4340265373 34.6827763199  21.81779535435 26.7684302064 34.8096766331  22.7300275374 26.9533454918 35.1087360622  23.1971569027 27.0024967279 34.7251154061  22.43543573485 26.298262488 34.0000962347  23.3476679179 26.4831777734 34.2991556638  21.3726925366 26.6326661571 34.1269965479  23.4981789331 25.9638588189 33.8731959215  23.9331213425 23.6011178473 27.0080947369  24.1358121985 22.28062953765 26.97768307935  23.5742398114 22.88245984415 27.0951841979  24.17678330805 22.50358695665 27.47760611515  24.4946937296 22.9992875408 26.89059361835  25.0562661167 22.3974572343 26.7730924998  23.2153582803 22.163801841 27.1822736589  26.4020891213 28.2106049492 30.6285052583  25.7399639797 26.6628820605 30.5563088308  26.13275753985 27.263899824 31.11982391275  25.7172297865 27.16716070035 30.514600165  26.00929556115 27.6095871857 30.06499017635  25.0323704517 26.1237164515 30.4006950717  25.44789820505 26.22045557515 31.00591881945  25.32443622635 26.56614293685 29.95108508305  25.616502001 27.0085694222 29.5014750944  25.8634259584 26.3171946988 31.6111425672  16.3694225369 25.7672271128 36.4985258914  17.51347216945 25.915270767 35.92893641025  17.24180078145 26.11227944425 36.47502978995  16.5171041062 26.23989215725 36.02292615575  16.6410939249 25.57021843555 35.9524325117  16.6647856755 26.7125572017 35.5473264201  17.38948235075 26.5849444887 35.9994300543  16.7887754942 26.04288348 35.47683277605  16.9127653129 25.3732097583 35.406339132  18.114179026 26.4573317757 36.4515336885  25.4115708122 29.898615565 31.2582752548  24.99938175145 29.6283005651 30.667821724  25.10505527265 29.079376091 31.3287645236  25.67590674185 29.53180861985 30.90907616095  25.9402426715 29.1650016747 30.5598770671  24.6928662119 28.8090610911 30.7383109928  25.2637176811 29.26149361995 30.31862263015  25.3693912023 28.71256914585 30.97956542975  24.7985397331 28.260136617 31.3992537924  24.5871926907 29.3579855652 30.0773681932  27.4361534153 24.9689048075 32.4500482235  26.6124015639 24.92594555145 32.32007614515  27.2104278433 24.3588778455 32.2344245325  27.2324527574 24.82013987565 31.7807440683  27.0287520995 24.6713749438 31.1114399131  26.3866759919 24.31591858945 32.10445245415  26.408700906 24.7771806196 31.65077198995  27.0067271854 24.21011291365 31.5651203773  26.9847022713 23.7488508835 32.0188008415  25.7886497125 24.8829862954 32.1901040668  23.4629330082 27.9227543343 34.349447558  23.5148807292 27.17451201815 33.72569202535  23.114666616 27.0842687059 33.9519779084  23.24755466875 27.5443975091 33.76414398435  23.73025906865 27.55286884335 34.310995599  23.33004495545 27.4626255311 34.53728148205001  23.5973710159 27.09274004015 34.49882952305001  23.9975851291 27.1829833524 34.27254364  23.0321763293 27.1660406839 33.1788404107  16.0847553444 26.4858859348 37.4779953134  16.47156068115 25.9517250994 38.0527743087  17.0827220866 25.78839929405 37.49279126995  16.00911377115 26.03900438695 37.59532431015  15.9334721979 25.5921228391 37.7126533069  16.3959191079 25.50484355155 38.17010330545  17.00708051335 25.3415177462 37.6101202667  18.0806888288 25.0909126533 37.5075872265  17.46952742335 25.25423845865 38.06757026525  16.8583660179 25.417564264 38.627553304  19.8914288768 25.869378423 40.6433994556  20.6212927696 26.2536814114 39.4218723382  20.07695742505 26.71464480165 39.26585726544999  20.3002298734 25.83728087545 39.4218723382  20.212491773 26.28577895895 40.6433994556  19.75589452885 26.2982442657 39.26585726544999  20.5335546692 26.7021794949 40.6433994556  19.6203601809 26.7271101084 37.8883150753  20.16469552545 26.26614671815 38.04433014805  20.70903087 25.8051833279 38.2003452208  15.309168645 31.6568913987 40.6433994556  15.99750650895 31.2858435265 39.30404715189999  15.33167374595 30.98570263955 39.30404715189999  15.362254144 31.1218126225 40.6433994556  16.028086907 31.42195350945 40.6433994556  15.27858824695 31.52078141575 39.30404715189999  15.2480078489 31.3846714328 37.9646948482  15.415339643 30.5867338463 40.6433994556  16.081172406 30.88687473325 40.6433994556  16.747005169 31.1870156202 40.6433994556  26.9297174299 26.3075216973 27.7470231958  26.34002075235 25.9650377159 28.3962186174  26.00578915755 25.83640479415 27.75709602155  25.87736376795 26.62590285585 28.0536838595  24.825010106 26.9442840144 28.3603445232  25.2876670904 26.28341887445 28.7028792811  24.9534354956 26.1547859527 28.06375668525  25.0818608852 25.365287891 27.7671688473  25.41609248 25.49392081275 28.40629144315  25.7503240748 25.6225537345 29.045414039  18.6070155791 24.0706593066 34.7156764511  19.37257543685 24.2002390197 35.1447278122  19.1575715321 23.7063901657 34.63635056735  19.22001245405 24.15768259775 34.4212125878  19.833009329 24.2447058889 34.1267487245  19.92313138985 23.8359698788 35.06540192845  19.9855723118 24.28726231085 34.85026394889999  19.77056840705 23.79341345685 34.34188670405  19.7081274851 23.3421210248 34.5570246836  20.1381352946 24.3298187328 35.5737791733  17.700866033 21.9231297919 37.3558308942  18.1742668751 22.93858766685 37.09661382575  18.06146278415 22.20083077365 37.88814969294999  18.50108501745 22.71028014155 37.69397248205  19.3013040019 23.4974304912 38.0321140699  18.53486362625 23.2162886486 37.6289326245  18.97448585955 23.7257380165 37.4347554136  18.8616817686 22.9879811233 38.2262912808  18.4220595353 22.4785317554 38.4204684917  18.6476677172 23.9540455418 36.8373967573  19.9176300201 23.4365843875 40.6433994556  20.5312627125 23.3794911275 39.1713270174  20.37387364475 23.04850069175 40.6433994556  20.5303523487 23.55669498895 40.6433994556  21.1430746773 23.6768055904 40.6433994556  20.98750633715 22.99140743175 39.1713270174  21.1439850411 23.49960172895 39.1713270174  20.98659597335 23.1686112932 40.6433994556  20.8301172694 22.660416996 40.6433994556  21.1448954049 23.3223978675 37.6992545792  16.0890362389 22.5309604467 38.6494507119  16.8049162536 22.43399201 37.97013772965  17.2085147096 22.86429247265 39.093665161  16.47989380685 22.17080504305 38.5228976524  16.41405868565 22.79414741365 38.09669078915  16.88349226285 22.6011055057 39.64642508375  16.7390811324 23.0573343806 37.5439308664  17.6779482868 22.6712505647 40.6433994556  17.2743498308 22.24095010205 39.51987202425  16.8707513748 21.8106496394 38.3963445929  25.1199403342 28.6658463652 35.6597436641  24.8100974334 28.5441113512 34.52242020105  25.3369051563 28.4070013235 34.75002332565  25.0013835868 29.10681022935 35.0333753385  24.9286541808 28.10314748705 35.14878852664999  24.7373680274 27.5404486089 34.6378333892  25.1456190029 27.84430244535 34.23906818819999  24.8828268394 29.5477740935 34.4070070129  25.2183484089 28.84796518765 34.12365500005  25.5538699784 28.1481562818 33.8403029872  18.5719375155 23.0357969692 35.4194268412  18.64805241955 22.8656104737 36.5266385887  18.60980261635 23.4949212555 36.12841179925  19.2892015726 22.61828331275 36.27788774605  18.6101873187 22.4064861874 35.81765363065  18.6484371219 21.7771754056 36.2158804201  19.3274513758 21.98897253095 36.6761145355  20.0064656297 22.2007696563 37.1363486509  19.32706667345 23.07740759905 36.98687270409999  26.9982708523 25.16654258 29.69801205  26.38804644825 24.80006051265 29.09114772755  26.26553159075 24.17463985065 29.4524979528  26.25178260605 24.76912749525 29.73306326975  26.37429746355 25.39454815725 29.3717130445  27.012019837 24.5720549354 29.41744673305  27.0257688217 23.9775672908 29.1368814161  25.5052943598 24.3717124105 29.7681144895  25.6278092173 24.9971330725 29.40676426425  21.3098542273 22.3506644191 39.82235629794999  20.57122836505 22.05413452575 39.7965997527  20.3123394607 21.4478520555 38.9498000498  20.7286174328 22.3851249615 38.3245273145  21.05096532295 21.74438194885 38.97555659504999  21.7895911852 22.0409118422 39.0013131403  21.46724329505 22.68165485485 38.35028385975  16.0958389288 27.4803419669 39.2358325858  16.39838566185 26.86154236565 39.326549037  16.61728687765 27.49553069835 39.326549037  16.5967892982 27.46880455455 39.9396160207  16.3778880824 26.83481622185 39.9396160207  16.11633650825 27.5070681107 38.6227656021  16.1368340877 27.5337942545 38.0096986184  17.0977396676 27.4572671422 40.6433994556  16.8788384518 26.8232788095 40.6433994556  16.659937236 26.1892904768 40.6433994556  19.6364201832 26.6729269285 31.7056684612  20.3820347696 26.88161515455 31.04127306095  20.10996957225 27.60193381025 31.3764504419  19.69009193505 26.61286030505 31.17366068505  19.7437636869 26.5527936816 30.6416529089  20.43570652145 26.8215485311 30.5092652848  20.1636413241 27.5418671868 30.84444266575  20.5835189613 28.530940692 31.0472324226  20.85558415865 27.8106220363 30.71205504165  21.127649356 27.0903033806 30.3768776607  25.4253563976 26.4937286056 35.2354063954  26.17679410865 27.0566400529 34.5186035974  25.489613188 27.3209424437 34.5378546913  25.50235571135 26.3845318276 34.14970784045  25.5793550251 26.2753350496 33.0640092855  26.2537934224 26.9474432749 33.43290504245  25.56661250175 27.2117456657 33.45215613635  26.24105089905 27.883853891 33.82105189329999  26.9282318197 27.6195515002 33.8018007994  24.8471873502 31.2051065946 31.2464608499  24.60138201135 30.13235057295 31.4798635446  24.71719002045 30.2815460799 30.66191452155  24.31919028035 30.78559608775 31.47395634215  25.1293790812 30.5518610798 31.25236805235  24.1891929506 29.86203557305 30.8894100138  23.7911932105 30.3660855809 31.7014518344  19.9013127465 24.6350503054 37.0038113194  19.27449023185 24.2945479236 36.92060403835  19.9538891881 23.41790998085 37.07007998515  19.6013083742 24.0662403983 37.51796269465  19.6538848158 22.84910007375 37.5842313604  17.9459240021 32.73145132
[...]
<PointData  Scalars="p_CO2"> 
<DataArray  type="Float64"  Name="p_CO2"  format="ascii">4.0003380474569759e+01  3.9991760901680706e+01  4.0004330696298737e+01  3.9995774400107656e+01  4.0002617213375665e+01  4.0009662608248732e+01  4.0004390339152870e+01  3.9994009851998484e+01  3.9999146533619239e+01  3.9997765226466861e+01  4.0000621657136868e+01  3.9998836332505284e+01  4.0000891184697998e+01  4.0000778253029935e+01  4.0002042837415836e+01  4.0001552759575688e+01  4.0000730688961042e+01  4.0003369072084745e+01  4.0006167242827416e+01  4.0000841678695593e+01  4.0006000017058128e+01  3.9985863891413132e+01  4.0001227022001920e+01  3.9999206536364355e+01  4.0000155668970010e+01  3.9999280712191037e+01  3.9996350925312946e+01  3.9998044646325276e+01  4.0001768879308059e+01  4.0009480105676204e+01  3.9995969555309976e+01  3.9997230011522326e+01  3.9998498777760318e+01  4.0007687346545900e+01  3.9992456055319195e+01  3.9999886049586003e+01  4.0004670960108122e+01  4.0003960569335007e+01  3.9995222336739715e+01  3.9977007096365845e+01  3.9999697883226474e+01  3.9998525153772697e+01  4.0001216617262578e+01  3.9998417774547150e+01  3.9978971036885859e+01  3.9996738414454157e+01  4.0000069052711808e+01  3.9997614192788923e+01  3.9978142647546072e+01  4.0004120385241421e+01  3.9979100389844461e+01  4.0006410644374242e+01  4.0006002463699275e+01  4.0000129603640914e+01  4.0010201095325087e+01  4.0005598513440049e+01  3.9996086364688438e+01  4.0004481416583488e+01  3.9979403372506788e+01  3.9984389494243892e+01  3.9984491155135544e+01  4.0014007811730330e+01  4.0064118267318833e+01  4.0036725588926004e+01  3.9999704054123626e+01  3.9998645944770033e+01  4.0001742245964699e+01  4.0001318491852807e+01  4.0002089807437024e+01  4.0001239958944709e+01  4.0000485890959631e+01  4.0003288759099860e+01  4.0000286651482583e+01  4.0000284955626817e+01  4.0000461756047088e+01  4.0001574181221152e+01  3.9999712643223710e+01  4.0004491797790656e+01  4.0002648244424734e+01  4.0001890651993840e+01  4.0007242876171219e+01  4.0000599347240183e+01  3.9999590913170508e+01  4.0002132859872965e+01  4.0000517864497574e+01  4.0002010710928573e+01  3.9994897921886277e+01  3.9997855751576161e+01  4.0018943655529014e+01  4.0008706515774492e+01  3.9999351261736997e+01  3.9990352067193491e+01  3.9997443108732782e+01  3.9997993107069249e+01  3.9976830608443237e+01  4.0010056460733679e+01  3.9999657014788021e+01  3.9999297154157986e+01  4.0002826326273770e+01  4.0000468480707539e+01  4.0000504874454144e+01  4.0000057782194695e+01  4.0000506768727192e+01  4.0001441284666498e+01  3.9998629291831513e+01  3.9998606467238439e+01  4.0000917482438389e+01  3.9999388604472166e+01  4.0006288919002863e+01  4.0003232195490035e+01  3.9996849058012472e+01  3.9998879355003361e+01  3.9997391989055323e+01  3.9996890271560325e+01  3.9999328101520270e+01  4.0000396973103115e+01  3.9998911079264325e+01  3.9997723593076415e+01  3.9998138389666757e+01  3.9997232878565910e+01  4.0000260008985052e+01  3.9999254774430867e+01  3.9999713350984116e+01  4.0000345591631984e+01  4.0001078993904812e+01  4.0000507346267788e+01  3.9998115984166347e+01  3.9998877348974233e+01  4.0002407281292626e+01  4.0001384747835679e+01  4.0000196817598024e+01  3.9994582786307028e+01  3.9995347172293059e+01  3.9999210261877373e+01  4.0001222250998055e+01  3.9997623623965509e+01  3.9999691509594676e+01  3.9999254276841377e+01  3.9995871330260755e+01  4.0000516110904975e+01  4.0001280222884368e+01  3.9991514807460007e+01  4.0000093235241700e+01  3.9999370323827769e+01  4.0003395086981513e+01  4.0001836510822066e+01  3.9999423790986548e+01  4.0015662218361655e+01  4.0001843279652043e+01  4.0001515325656769e+01  3.9998868166538138e+01  3.9996827226416983e+01  4.0006152311715610e+01  4.0000670091610033e+01  4.0006797022002779e+01  4.0002412962530897e+01  3.9998959963290503e+01  3.9996525913600259e+01  3.9998535503656214e+01  3.9997020090398280e+01  4.0008178337101725e+01  4.0002172757203596e+01  3.9999759617034044e+01  3.9999354967031209e+01  3.9996241578904623e+01  4.0004389843782242e+01  3.9997691240827862e+01  4.0001365690361439e+01  3.9997080475543093e+01  4.0001263104658904e+01  4.0000361527371062e+01  4.0000751768609192e+01  3.9997279888769057e+01  3.9999922229634613e+01  4.0001349168125778e+01  3.9999625884264432e+01  4.0002296959005889e+01  3.9999630650441439e+01  4.0001413388446814e+01  4.0002400327123503e+01  4.0000279030212305e+01  3.9991091618382804e+01  4.0008764491328762e+01  4.0002078687250268e+01  3.9997675138579893e+01  3.9994895947619774e+01  4.0005691218050416e+01  4.0002539857351458e+01  4.0006677213135930e+01  3.9994307767852739e+01  3.9998480792384271e+01  3.9996600794730355e+01  4.0001790321292340e+01  4.0002101616472800e+01  4.0007011284578070e+01  3.9993916948855222e+01  4.0017188562971100e+01  4.0006263210921844e+01  4.0000471877596688e+01  4.0001862968721696e+01  4.0002035963990004e+01  3.9998052300756896e+01  3.9999994067540406e+01  4.0003842301792325e+01  3.9990221650725758e+01  4.0000821565996013e+01  3.9994480641533784e+01  4.0005781772171567e+01  4.0002678547264772e+01  3.9999893111406934e+01  4.0000447366779476e+01  3.9995801762961854e+01  3.9995334686330260e+01  3.9999127031189666e+01  3.9988538654296157e+01  4.0000020162239949e+01  4.0001252349164083e+01  3.9999702214703142e+01  4.0001117565218671e+01  3.9998730127043714e+01  3.9999285929709437e+01  3.9998498991360272e+01  3.9988556657760263e+01  4.0024396981803172e+01  3.9999278860437435e+01  3.9999423649147097e+01  3.9991177815689362e+01  3.9984264398489351e+01  3.9993257390345704e+01  3.9988507616061923e+01  4.0005189787719580e+01  3.9996579788811722e+01  4.0001606789285461e+01  4.0001080563070971e+01  4.0000097253549562e+01  4.0002115446818316e+01  4.0001261305271747e+01  4.0000855107266197e+01  4.0001718102133928e+01  3.9999272946413846e+01  4.0000029095493254e+01  4.0005831721393541e+01  4.0003554748437217e+01  4.0005474278288418e+01  4.0004554482465721e+01  3.9995260934754064e+01  3.9994944871702096e+01  3.9994783440032293e+01  4.0001081702945982e+01  4.0001088382150478e+01  3.9999207289290247e+01  3.9992834930050464e+01  3.9997571593222226e+01  3.9999584498877482e+01  4.0000634778365914e+01  3.9988385512624667e+01  4.0004038174088869e+01  4.0002004337346442e+01  4.0007746980141619e+01  3.9995917891971672e+01  3.9990237324899034e+01  3.9996069349740466e+01  3.9995331446464697e+01  3.9996696103945190e+01  4.0002322437742819e+01  4.0010103826741300e+01  3.9998991917865176e+01  3.9997172885132038e+01  3.9990455555919958e+01  3.9997798543091065e+01  3.9999568073850497e+01  3.9999865981177408e+01  3.9990224332130659e+01  3.9996750618298556e+01  3.9997021673897976e+01  3.9995145368028680e+01  4.0008799123170853e+01  3.9999158687467357e+01  4.0002320463523098e+01  4.0000685272606930e+01  3.9998003300947516e+01  4.0002150838172042e+01  4.0004267661218471e+01  3.9999004200180345e+01  4.0002621190463827e+01  4.0001151304334591e+01  4.0000590224360309e+01  3.9999875058631403e+01  3.9999796333548822e+01  4.0004234816390813e+01  3.9999850340007825e+01  4.0000389402348731e+01  4.0000328608020240e+01  4.0002887777387095e+01  3.9988445178205659e+01  3.9991464188915330e+01  3.9999267611736769e+01  4.0002474143313904e+01  4.0000675862739307e+01  4.0008206107151167e+01  4.0004166290259718e+01  3.9989629274934323e+01  3.9990226571207486e+01  4.0013195487738713e+01  3.9994175927829943e+01  4.0000037672719060e+01  3.9999404597422860e+01  3.9998719644319173e+01  3.9999595380024040e+01  3.9999375411217841e+01  3.9999695586590889e+01  3.9999959327709199e+01  4.0001284677216795e+01  4.0002682148905102e+01  3.9996061810627488e+01  4.0002139364421680e+01  3.9998678406638689e+01  3.9997288045557795e+01  3.9996869367065074e+01  3.9998573311235042e+01  4.0001790656863015e+01  4.0000321557941760e+01  4.0001857928008214e+01  3.9999440967456955e+01  3.9998988654556854e+01  4.0001051822189183e+01  3.9996979051196128e+01  4.0001123006069669e+01  4.0002391115428814e+01  4.0001154898041761e+01  4.0000055201196979e+01  4.0001881112231885e+01  3.9999210793676411e+01  4.0000128027954169e+01  4.0002530753202308e+01  3.9999764162354175e+01  3.9998352271892081e+01  4.0003852214125097e+01  4.0001428880316752e+01  3.9999520033725908e+01  3.9999867924401116e+01  3.9999807483640403e+01  3.9998615821860675e+01  4.0001347457412855e+01  4.0001267634431606e+01  4.0000139566871624e+01  4.0001413127469348e+01  3.9999684490655589e+01  4.0003322789765619e+01  4.0003429362978004e+01  4.0002150254115975e+01  4.0000973950512979e+01  3.9998844837150145e+01  4.0001566311285039e+01  3.9992746296988713e+01  3.9998480386982685e+01  4.0014303582408893e+01  4.0001397157005435e+01  4.0003656858416136e+01  4.0007950701982985e+01  3.9998797297399783e+01  3.9993798725341129e+01  3.9992321192996307e+01  3.9989324759563758e+01  3.9996094581210265e+01  3.9999665525290823e+01  4.0000827290160046e+01  4.0002499552518863e+01  3.9999167905387274e+01  3.9996010346683207e+01  3.9998492443076834e+01  3.9992204114828247e+01  3.9994543486731644e+01  4.0001485965216787e+01  4.0004020575463869e+01  4.0004196310909961e+01  4.0002864098183942e+01  3.9998286336351981e+01  3.9999749400283051e+01  3.9999272044073194e+01  3.9995581722444911e+01  3.9997531042135769e+01  4.0000874389779113e+01  3.9999252344754346e+01  3.9997017808645694e+01  4.0001975914953050e+01  3.9996717752991280e+01  3.9999764047153377e+01  3.9998156738627493e+01  3.9999050790558599e+01  4.0001017571184256e+01  3.9996847727608262e+01  4.0008334055203569e+01  4.0003420981834218e+01  4.0002815294094205e+01  4.0000232447830591e+01  3.9999719697016708e+01  4.0007347496101914e+01  3.9996661777018190e+01  4.0013598820602958e+01  4.0004768207769345e+01  3.9999432414566343e+01  3.9998173243425704e+01  4.0009606086905301e+01  4.0003680802912420e+01  3.9991443628024093e+01  3.9999337066825923e+01  4.0003818981166212e+01  3.9997848521290713e+01  4.0006189149725614e+01  3.9996126705916872e+01  3.9997205998126070e+01  4.0017405387977433e+01  4.0005299103624971e+01  4.0102446017371044e+01  4.0126007074973948e+01  4.0003950768639939e+01  4.0038369530797546e+01  4.0007302916258134e+01  4.0028637973033590e+01  4.0009531301817972e+01  3.9975600700111549e+01  3.9966748660500983e+01  4.0011100526261657e+01  3.9971399093733936e+01  4.0006628581352956e+01  4.0000637701111522e+01  3.9986455231023847e+01  4.0011796911706313e+01  3.9998333103301157e+01  4.0000321912898151e+01  3.9998429247634711e+01  4.0010937636657772e+01  3.9991874612376890e+01  3.9991695611111510e+01  3.9944469649653115e+01  4.0013501264736441e+01  3.9985234023830593e+01  3.9994818788897398e+01  3.9997633256378911e+01  3.9998471043327065e+01  4.0000160939446928e+01  4.0000720690404933e+01  3.9998899247875606e+01  3.9999060256194198e+01  3.9999750650904275e+01  3.9999764442167717e+01  3.9998215326262475e+01  3.9998498227093577e+01  3.9992805103674769e+01  4.0008858678938772e+01  3.9996615365837123e+01  4.0004376493707049e+01  3.9999785963734993e+01  4.0000404896346495e+01  4.0002603761299909e+01  4.0003049435972414e+01  4.0000189873036270e+01  4.0002757662015540e+01  4.0002205449721146e+01  3.9999582177746852e+01  4.0002759144701173e+01  4.0007888585517762e+01  3.9997912298435168e+01  3.9991800583777568e+01  4.0005149878054063e+01  3.9997226331422404e+01  4.0004211146189945e+01  4.0006983279984787e+01  4.0012514169433423e+01  4.0054182426687802e+01  4.0045455863703644e+01  3.9950553301120721e+01  4.0030231072745536e+01  4.0013386987563948e+01  3.9992412203067147e+01  3.9993834960728876e+01  4.0003985528856660e+01  4.0001114598085429e+01  3.9997194431671353e+01  3.9999298419687150e+01  4.0003155357606886e+01  4.0001170902736725e+01  3.9997899733521322e+01  4.0005799513028471e+01  4.0001799788596202e+01  4.0002882374236144e+01  4.0001091629692972e+01  3.9990094921944213e+01  4.0002492921506352e+01  4.0001781681300109e+01  4.0001261902762195e+01  3.9999960287350234e+01  4.0000686737918649e+01  4.0001533294615633e+01  4.0000385615884312e+01  4.0004395892174351e+01  4.0000712602486480e+01  3.9997553521503420e+01  4.0000743710708761e+01  4.0000607090368945e+01  4.0001985942900617e+01  4.0003954546087044e+01  4.0001059648658938e+01  3.9999614642270529e+01  3.9999382333342901e+01  4.0002049277959507e+01  3.9999543281992693e+01  4.0000019290259331e+01  3.9998420568940361e+01  3.9999401129671512e+01  4.0000134455578234e+01  4.0000384616904917e+01  3.9983332937207329e+01  4.0049309566427418e+01  4.0005298123688874e+01  4.0001781661029476e+01  3.9974973661371322e+01  3.9997309824141965e+01  4.0003545502199223e+01  3.9998953758902843e+01  4.0000909703826409e+01  3.9999713804018597e+01  4.0002067082058311e+01  3.9998654189753140e+01  3.9998327903913903e+01  4.0002854011319037e+01  3.9994640209128590e+01  4.0000309142709725e+01  4.0007007346287551e+01  4.0008616735403280e+01  3.9983636679043506e+01  4.0049895544387311e+01  4.0005805170543752e+01  3.9977608169068475e+01  3.9980865151327620e+01  4.0003496179874176e+01  4.0004667608466910e+01  3.9998895033328637e+01  3.9995462528814912e+01  4.0000151113128247e+01  4.0000566253490817e+01  3.9998776552239136e+01  4.0000243632929795e+01  4.0002777885696119e+01  4.0001263013788950e+01  3.9997133373184866e+01  4.0006753763134682e+01  4.0044410616892847e+01  4.0009156436361963e+01  3.9998431575407260e+01  3.9998471531245379e+01  4.0005457656328439e+01  4.0000786554386401e+01  3.9998468917863683e+01  4.0000221940438614e+01  3.9999478879067460e+01  3.9995683377036436e+01  3.9998539056898281e+01  4.0003275913728892e+01  3.9998879046039292e+01  4.0001553271212664e+01  3.9999787262472829e+01  3.9999765856692662e+01  3.9998315999247765e+01  3.9987916954955104e+01  3.9992818626885892e+01  4.0008575886349142e+01  3.9995263578604330e+01  3.9974034934488586e+01  3.9999845093360818e+01  4.0000054178648497e+01  4.0002996483233055e+01  4.0002553797031048e+01  4.0001642285458416e+01  4.0001314066950492e+01  4.0000309738420285e+01  3.9999885975204613e+01  3.9995217854049066e+01  3.9997080612933757e+01  3.9999745953110100e+01  3.9989267207332006e+01  3.9992060411099253e+01  4.0002453194428561e+01  3.9996706338831103e+01  4.0001663508325898e+01  3.9999168825887942e+01  3.9990036376742900e+01  4.0002563709199180e+01  3.9996052180581849e+01  4.0002591171282901e+01  3.9994045955910053e+01  3.9996771699897302e+01  3.9995116248261098e+01  4.0013245750114748e+01  3.9987306193578966e+01  3.9987691462014524e+01  3.9982427934821558e+01  3.9990309709678655e+01  3.9999396058628058e+01  3.9988050166184379e+01  3.9998522011258999e+01  4.0000932778007019e+01  4.0000131791019378e+01  3.9996305217018190e+01  4.0002915324552283e+01  4.0010526871117293e+01  4.0003315449427056e+01  3.9999293264269227e+01  4.0004748559366135e+01  4.0008312928951234e+01  4.0013233932391415e+01  3.9926512243150341e+01  4.0017690971228262e+01  3.9989009645149217e+01  3.9990318430706942e+01  3.9992801152497258e+01  4.0014154063500946e+01  3.9986440196778297e+01  4.0000277316422320e+01  4.0006411813027810e+01  3.9995648948667650e+01  4.0000999015961050e+01  3.9999544847737837e+01  3.9998811688022421e+01  4.0002815202330559e+01  3.9998833079254645e+01  3.9998964475810055e+01  4.0000918745484128e+01  4.0000177493362514e+01  4.0002560832506823e+01  3.9999632442408142e+01  3.9998537260389540e+01  4.0000721805660667e+01  4.0000645309363314e+01  4.0000192623562960e+01  3.9995574405447329e+01  3.9999055560548129e+01  3.9998029799808009e+01  3.9999561485073833e+01  4.0001339103010160e+01  3.9998967816097291e+01  4.0001087380967604e+01  3.9999687225072648e+01  4.0000041625032310e+01  3.9998690759471991e+01  3.9998015717983357e+01  3.9999225943027035e+01  3.9988053494006138e+01  3.9993684517366773e+01  4.0006081090865699e+01  4.0005412166948673e+01  3.9995453767680416e+01  4.0001291559625983e+01  4.0001831736799652e+01  3.9998559646076515e+01  3.9998546771343591e+01  4.0002388520980688e+01  3.9998587645704056e+01  4.0000476858901820e+01  4.0000284025898019e+01  3.9999397448222169e+01  3.9999586158993260e+01  3.9999376542546507e+01  4.0000776823985689e+01  4.0000897035817488e+01  4.0000157038928982e+01  3.9999561094559652e+01  3.9999397616571926e+01  4.0001778097927684e+01  3.9999256852315447e+01  3.9998076181090283e+01  3.9999399928006987e+01  3.9998604281204223e+01  4.0001935033827479e+01  4.0001486297435044e+01  3.9999034480708339e+01  3.9997388524218849e+01  3.9998655739649827e+01  3.9999493752521943e+01  3.9997435573738251e+01  3.9999987481041977e+01  4.0000726468193214e+01  3.9992162679937962e+01  3.9980842597966259e+01  3.9997329187784395e+01  4.0008092922286728e+01  3.9998839765996685e+01  4.0001453248476729e+01  3.9994156181748956e+01  4.0011352659527468e+01  3.9992191087202826e+01  4.0007538568368830e+01  3.9989342880919601e+01  3.9998063165561767e+01  4.0015092982851662e+01  4.0008222981062723e+01  3.9992739685600128e+01  3.9996285764530590e+01  4.0000940329894782e+01  4.0002410917867678e+01  3.9999140500523879e+01  3.9999911192795750e+01  4.0001425892141746e+01  3.9998869860866435e+01  4.0000489006300086e+01  4.0001733510145165e+01  4.0000571075271431e+01  4.0002311055908109e+01  4.0004502325118203e+01  3.9997731022257604e+01  3.9998618762901614e+01  4.0001769965775530e+01  3.9999564277892084e+01  3.9998439909264519e+01  3.9996163846749383e+01  3.9998345376050047e+01  3.9997097772680398e+01  3.9998395580942635e+01  4.0001417145809953e+01  4.0003413781331446e+01  4.0000966538321926e+01  3.9996517070405588e+01  3.9999815789111729e+01  3.9999929648053019e+01  4.0004052880156486e+01  4.0000092012849848e+01  4.0008669002724311e+01  4.0002739906173467e+01  3.9999168173371949e+01  4.0002076356000934e+01  3.9999767979878087e+01  4.0009435175458123e+01  4.0005635104417870e+01  3.9991671340400821e+01  3.9999845392945289e+01  4.0002154968191647e+01  4.0002273015490857e+01  3.9999122611072764e+01  3.9994241879000292e+01  3.9993536326868060e+01  3.9998943159733649e+01  3.9998891855053230e+01  3.9993574063598153e+01  4.0001115667214854e+01  3.9999423536084798e+01  3.9999434899309868e+01  3.9983481934201912e+01  4.0062733517092717e+01  3.9938986511892047e+01  3.9958403385011508e+01  3.9995299558933176e+01  4.0059401661880671e+01  3.9899614448849043e+01  4.0044995306766467e+01  4.0001218709548105e+01  3.9965313188739984e+01  4.0022192149899624e+01  3.9998009265318366e+01  3.9950212736094429e+01  4.0034521855661836e+01  3.9980442520174641e+01  3.9995072494753828e+01  3.9998523432863713e+01  4.0001424192197319e+01  3.9998733538918430e+01  3.9999831500084007e+01  3.9999611282724878e+01  3.9997961090905157e+01  4.0001921242630772e+01  4.0002559913910041e+01  4.0004741302496598e+01  4.0020997978467385e+01  3.9989749341313413e+01  3.9996637175881631e+01  4.0001282143326762e+01  4.0006203831724946e+01  4.0004903667657885e+01  4.0001267548351493e+01  4.0002416920732010e+01  4.0006297231187219e+01  4.0003705630131535e+01  4.0001844655053631e+01  4.0004908478419708e+01  3.9993090053185185e+01  3.9997042984684022e+01  4.0008047107675040e+01  4.0007726083971328e+01  4.0004944573882014e+01  4.0000713703071817e+01  3.9996964558954367e+01  4.0003175735979049e+01  3.9998782925479247e+01  3.9999532033885778e+01  3.9998060191670127e+01  3.9999419192717475e+01  4.0000675389761476e+01  4.0001301754561801e+01  3.9999931875753866e+01  3.9999784597678484e+01  3.9998384089762020e+01  4.0000423553378702e+01  4.0001210377058420e+01  4.0000051652147981e+01  3.9999712305619440e+01  4.0001143246859108e+01  3.9999707371045872e+01  4.0015507959506898e+01  3.9997368080041426e+01  3.9996336637002585e+01  4.0012761115653362e+01  4.0007729981217523e+01  4.0033832762451993e+01  4.0003933474250978e+01  4.0000611016024585e+01  3.9999943735874808e+01  4.0006600270154671e+01  4.0003814343690124e+01  4.0000032476361362e+01  4.0005040213315603e+01  4.0001933670812207e+01  4.0001602944098195e+01  3.9995605043694418e+01  3.9993530841633238e+01  4.0009436144227578e+01  4.0013031123824312e+01  4.0004880287109600e+01  3.9994912414052287e+01  4.0006797499921127e+01  3.999693085785818