<?xml version="1.0"?>
<VTKFile type="UnstructuredGrid"  version="0.1"  >
<UnstructuredGrid>
<Piece  NumberOfPoints="2376" NumberOfCells="8625">
<Points>
<DataArray  type="Float64"  NumberOfComponents="3"  format="ascii">31.31392399354751 5.370051060948815 13.92144484527223  30.14500777071176 5.385095346664645 16.52108386735743  31.30551338810937 3.497919517932927 16.17317850628635  32.32424647429752 5.891158506403991 15.71173902672302  30.643978 8.828338 20.149931  30.472158 10.018025 20.730074  30.704874 9.242824000000001 21.886198  32.1330532103625 9.548575560361337 21.02793721603661  35.019825 35.509727 6.708842  36.092964 35.28476 5.975733  35.989189 34.621014 7.430953  34.15499280279905 34.0534500365502 6.497917091016387  26.526857 6.359998 10.705928  27.92044328216533 4.953104858799419 8.517145593644903  27.06835159020299 7.082596566346115 8.945796850512522  29.65465881192182 5.923425944602356 9.405615933301883  31.647417 34.678417 4.722976  30.987957 35.943874 4.446743  32.30655553956512 36.55415889589077 5.451758228389459  32.51538653934396 35.74664726058705 3.678431763241696  34.925972 14.823627 8.919129999999999  34.16116 15.699978 7.646983  36.78437218094574 16.80920092228991 8.668988283442175  36.96738427178317 15.67141315784969 7.44600553584724  35.274319 30.225479 9.871983  35.114864 31.107714 10.758139  35.8997 31.153934 9.544501  33.58059571873815 32.20922836638618 9.353823280268672  38.409668 35.62355 3.534725  39.045589 35.3615 2.768748  38.425472 35.700558 2.309649  38.79645801129972 36.72856922647767 2.800950907912739  34.44493899460467 26.9058937973461 14.13960418041887  32.575871 26.975361 14.094378  33.72354818365801 28.35407501110664 12.99858190767494  33.71155427756356 25.83551539363597 12.75910498616414  35.37968632871078 18.75529572769489 10.81447660136447  37.253395 18.29011 10.900098  35.14705274517575 17.09666895625377 10.19562289108383  36.20922993703215 18.52646159130537 8.955563760108895  28.44947532506188 19.97578980697011 2.771330124666097  28.81391 19.862478 1.206187  27.41230703368459 19.30353272607462 1.433204144484342  28.02411280415201 20.66322277099767 2.023723280165352  20.76408 7.311708 2.439075  20.896225 8.802512999999999 2.861443  21.037191 7.79706 3.814613  22.29990796458043 8.348893107145134 2.879757774698256  25.323948 7.836603 6.169925  24.01925713352778 6.28123624442375 7.503542182038773  25.3873248984183 6.222060445297412 5.713050343394928  25.61437613994522 6.855351154894088 7.442355451602913  16.349951 15.995463 3.816863  16.274353 17.181999 2.954506  15.296883 18.576059 4.314936  16.8473221344966 18.24756723237253 5.233881052424299  21.81671 11.211244 14.824056  22.936161 12.164712 14.380956  23.181126 10.926866 15.076006  23.17435826175766 11.06619040507711 13.39639557629791  23.08029919302011 8.851834776029254 14.48241704233135  21.62580670348767 10.11792219249332 13.54447171308322  30.52501634551106 9.300981218256927 18.19156910364351  28.886112 10.600979 19.106813  30.27834014244917 10.923794256542 17.5321441608837  28.75354646183022 9.593903365274535 17.02333060000726  32.53770858522817 31.64001140171058 1.93738314706581  30.738018 31.462175 2.155515  31.99506853625383 30.87987966050646 1.231882743104286  31.83088266457505 30.58170082468695 2.84644408702718  36.57758226395166 9.372131664999268 11.11998831463894  38.59035122513054 7.85110429963694 11.12933208986667  37.27836385543984 8.427196610590263 9.960908367004926  38.62084255912791 9.600852303774248 10.67132321659795  27.69529947446319 2.076366729193048 10.39017764971929  26.58378 4.652401 10.922153  28.81973986294469 4.01638785700794 10.60973648107751  26.78140717381392 3.723401753730434 9.041732706833097  27.823887 7.225966 16.799591  26.509388 6.733491 16.880165  27.688261 6.047368 17.039831  27.69665119613392 7.006973644800686 18.23865862353044  22.581383 24.367584 5.006853  23.462006 24.338789 3.801003  23.333458 23.12565 4.290676  22.17860262013036 23.47748294706035 3.427233238250511  20.449337 11.165722 14.040042  20.684761 11.143955 12.476002  21.442913 12.527428 14.07056  24.91920416848686 10.81313430405584 11.59479699534994  26.063704 10.322753 9.501659  25.28210283526597 8.871352822646489 10.62860355186257  24.20034123096929 11.08050780969391 10.25791138268063  39.95923699999999 23.751343 9.502115  39.95923699999999 22.313261 8.22038  39.286686 22.103052 9.58005  38.57562331150096 24.1077628585069 8.68805286846932  25.955263 22.939219 2.888069  25.48851 24.547083 2.786266  26.706257 24.535597 2.642296  25.81141670688831 23.93695557629064 1.555956866094582  33.32228150208384 8.857902833208124 16.94437947391137  33.12809158699898 10.61267319290463 19.2508073444275  33.93600494179065 7.980855802996144 19.82655945431772  35.14350187958795 10.1237867007591 19.0859482054303  38.082989 21.331476 10.345569  38.342354 22.964693 10.635325  36.94529783108348 22.78958679639232 8.671627194051613  36.373177 9.606377 2.273764  36.262905 9.206118999999999 1.077623  35.32806 9.288929 1.813319  35.60919431792103 10.25793698080031 1.305113405851828  34.19994 24.264839 8.526251  34.82075508880989 25.30697892660874 9.68443242707804  35.76999022009703 24.1207998932295 8.531660846683211  35.07292805065683 25.00892182982742 7.386393722596573  32.296036 31.374489 7.359776  31.905575 32.928005 7.863296  31.162989 31.858873 9.088481  32.699245 20.494833 15.48994  31.580404 21.256811 14.826095  32.88599 21.744513 16.143555  33.6699431425881 21.37991669306913 14.37512726662963  29.000549 3.320605 8.554463999999999  20.175013 6.199462 1.567203  20.284212 5.892829 2.777529  19.562344 4.752868 1.996961  21.54985099458173 4.330333068847397 1.912878772279063  25.703373 4.952629 0.9225640000000001  26.441959 6.438513 0.69259  25.26546893250623 7.294513778663734 1.968650285222336  25.42174618775987 5.598554759123193 2.66027614459052  29.4396 9.550471 13.215157  28.907068 10.505606 13.179383  28.0062724750763 9.436803802493726 13.05054022112304  28.68831230475 9.607189079791368 14.38665337715866  23.651155 9.615437999999999 0.03180900000000003  25.86310131965605 9.434483510941302 1.537524981993732  24.366489 11.168557 2.01503  24.346287 9.857745 2.713108  32.79985 20.289167 6.367303  34.159519 20.7885 7.540285  33.518349 19.214472 7.269745  34.25404183168612 20.78606122182913 6.064719555135569  35.769733 13.097977 9.571764999999999  35.166054 12.684088 10.900583  37.03686873491507 12.71380608465289 10.98878443763218  36.45228671655607 14.73809763534039 9.802910155854615  23.118298 10.231222 2.898875  22.37149 9.673155 4.378044  36.327717 10.102358 20.19528  37.253044 9.052194999999999 19.219507  35.89476415285398 8.232259854650176 19.09614560694681  33.22531096201951 21.07120949511605 12.04563379495439  31.431259 20.236984 12.190152  30.975815 21.533703 13.16698  31.573133 21.625513 11.708783  33.896721 18.057539 8.062870999999999  35.1364803863777 17.50713905269505 7.49853625377026  35.648342 12.122204 18.201172  36.14079256621203 9.900268293919675 17.79703404302705  35.773781 11.441383 19.265192  22.170292 13.040499 7.289567  22.971844 13.954695 8.181945000000001  20.68172796892375 14.46033727858538 8.629234506524112  22.05110365491535 13.56090306307788 9.30285759357152  20.995047 4.80344 6.456675  20.89485 4.036228 7.906526  22.24102055391836 3.610180706052513 5.730000987917365  23.01087933275009 4.297542140655896 7.955847766906648  27.31666724112722 9.103187521217436 18.3611459043992  29.151602591431 7.841878047286384 17.29569422957857  32.902386 0.679219 9.962210000000001  32.814579 1.754832 8.940807  31.388966 1.480419 9.714605000000001  32.42768770104702 2.821881151409138 10.03330892264288  35.458485 4.456131 6.89063  34.44368983656084 5.858017559869846 5.900184801609003  35.391319 5.247688 5.876731  33.77193908855467 4.73803032053403 6.74477653826616  33.23620606541256 21.74404125196931 4.44953438516409  33.68323295978014 23.16724941082143 2.498774355638873  34.13979185275024 23.18717423107914 4.317442873814834  34.6681874310862 21.93026978052065 2.835351764198591  35.86335 14.743967 0.03180900000000003  35.027061 13.234049 0.03180900000000003  37.05069 13.351755 0.03180900000000003  35.92211011768444 13.42680037003208 1.125692114702213  24.970671 17.243484 4.22919  25.634613 16.906595 3.379239  24.016993 16.802717 3.32941  24.09446861273442 17.91847682742779 2.620841973758472  37.07745671219089 25.14268489050336 8.107362996607389  36.72073881327252 23.77751661789184 7.444019122386522  20.278311 2.755863 7.734007  20.601351 3.338219 6.567168  22.35651076319918 2.088230699872792 7.432879184004477  21.56194547632735 6.198007474179751 1.574599962678183  27.723421 1.452638 8.784215  27.202991 1.816506 7.697396  27.275824 0.7548550000000001 8.404992999999999  26.22806381435569 1.132649924422045 8.41002428015333  35.95296488285735 18.91229442006089 5.073159226309348  34.57471212672811 16.88261986221835 6.082982073252245  34.852684 12.468493 6.657904  34.233505 13.80504 6.283744  34.975746 14.110637 7.423448  36.02626378290078 13.41540593226919 5.749085437318049  33.832432 9.360626 7.638446  36.10772391971128 9.965968214394035 7.274309337755584  34.651909 10.449728 7.813923  35.60785962167256 8.422232895374291 7.73911509217359  28.476978 15.800415 2.039324  27.647249 14.112927 1.988805  26.935184 15.257313 2.185978  26.8614620681676 16.02975962595324 1.415462846592458  24.00145 5.031047 0.03180900000000003  23.410521 3.518879 0.03180900000000003  24.77733 3.801096 0.03180900000000003  24.30895425531581 4.151600945710541 1.735334345900422  38.58388604296999 28.03786196081811 11.73263827320705  37.15325702724597 27.33043487050511 12.89050351474692  37.09853093293298 29.11728572150489 12.64049977812011  37.36213656463291 27.92596710435822 11.35745261953426  31.637781 40.003617 4.12709  30.638256 39.369396 3.439399  31.249969 40.003617 2.262346  31.87102466345231 38.79332527123101 3.100517177550898  30.363667 23.39966 11.771059  30.28607 24.501541 11.042825  29.61895 24.459162 12.199818  31.30579273995334 25.19138644615594 
[...]
<PointData  Scalars="p"> 
<DataArray  type="Float64"  Name="p"  format="ascii">8.3819713304695647e+00  8.4148589201557105e+00  8.3970510456203513e+00  8.3702473093621030e+00  8.3998846191868086e+00  8.4082016055087490e+00  8.4105232770307801e+00  8.3916483933548278e+00  8.1883799434059643e+00  8.1748847475409754e+00  8.1783086658170721e+00  8.1950114978017723e+00  8.4596150151769489e+00  8.4363936596308839e+00  8.4588162646460745e+00  8.4060135218761758e+00  8.2021085061789538e+00  8.2063167236594445e+00  8.2105007624213560e+00  8.1927098038370172e+00  8.1193662610041262e+00  8.1291998424046419e+00  8.0970052082859514e+00  8.1041204657924162e+00  8.1793667542840041e+00  8.1953312710069586e+00  8.1747923758947358e+00  8.2155538312014063e+00  8.1036498597430047e+00  8.0915592206380662e+00  8.1022678617772055e+00  8.0866645804246282e+00  8.1445161672245856e+00  8.1635654428381752e+00  8.1730685935824265e+00  8.1553086629840408e+00  8.1181596648605634e+00  8.0986360687734713e+00  8.1192606009011712e+00  8.1040319591670507e+00  8.4122400016152223e+00  8.4330671805593074e+00  8.4639431545747321e+00  8.4279604309003400e+00  8.5283394182979713e+00  8.5313155429376071e+00  8.5297999954527057e+00  8.5222657999902207e+00  8.4802970658948560e+00  8.5038208670682618e+00  8.4806150487410008e+00  8.4779056251424851e+00  8.8121029657509062e+00  8.8267410893351972e+00  8.8028010143992024e+00  8.7703876854675826e+00  8.6128204115966369e+00  8.5902062274520343e+00  8.5838806890030348e+00  8.5838858028521088e+00  8.5918088211669819e+00  8.6122783964901775e+00  8.4094499707049479e+00  8.4515269540430182e+00  8.4091396891669419e+00  8.4513606720474534e+00  8.2064813711163982e+00  8.2169593209752136e+00  8.2174147477257460e+00  8.2176377382250205e+00  8.1735339567010996e+00  8.1127451531860295e+00  8.1634052475595009e+00  8.0870728557980662e+00  8.4334028141837987e+00  8.4421182650340167e+00  8.4164999607202766e+00  8.4534852323458693e+00  8.4760182236053154e+00  8.5240578674571150e+00  8.4819944492819541e+00  8.4941166466222029e+00  8.6209593705157790e+00  8.5846455888915507e+00  8.5930798449103172e+00  8.5988966663155715e+00  8.6360837348453714e+00  8.6120722929462517e+00  8.6209731736917679e+00  8.5518159361357693e+00  8.5260244067744573e+00  8.5259120889748115e+00  8.5674240260763810e+00  7.9999999999999991e+00  8.0000000000000000e+00  8.0565216092790131e+00  8.0625920859250773e+00  8.4842112925041810e+00  8.5108804866784169e+00  8.4529765626719175e+00  8.4867871322958983e+00  8.3470762399560900e+00  8.3696221766082175e+00  8.3659329424525133e+00  8.3424016732665400e+00  8.0873090497774403e+00  8.0849310537298305e+00  8.0991460005095277e+00  8.2073935159916367e+00  8.2100543311864893e+00  8.2334307471204546e+00  8.2170846829811435e+00  8.1474750465816932e+00  8.1442059596204128e+00  8.1244252605300549e+00  8.1476113240633961e+00  8.2109563311092533e+00  8.2311245443568701e+00  8.2573800868673466e+00  8.1371097472419507e+00  8.1409637932316343e+00  8.1355146966263749e+00  8.1361762930355894e+00  8.4198519637248044e+00  8.5420514573774931e+00  8.5428492028438541e+00  8.5791191116639745e+00  8.5486775985778909e+00  8.4958114223441594e+00  8.4669313311089791e+00  8.4808627496314859e+00  8.4869400855743145e+00  8.4410104310653775e+00  8.4690607799190722e+00  8.4736944361973059e+00  8.4533404906183591e+00  8.5047969884922008e+00  8.4673773158678607e+00  8.5021191754477918e+00  8.4959788252120347e+00  8.1675496124816593e+00  8.1331149433380006e+00  8.1404653875857864e+00  8.1490803278523227e+00  8.1212815686826172e+00  8.1500195531211084e+00  8.1174557112587369e+00  8.1076568222389458e+00  8.5234486275760588e+00  8.5429460602023219e+00  8.3468228301688630e+00  8.3324909228525303e+00  8.3423317065556457e+00  8.1361144132033516e+00  8.1384504532499164e+00  8.1476130380418574e+00  8.1459013648579877e+00  8.1259964327461738e+00  8.1217608512261901e+00  8.3138797204614292e+00  8.3120966238183538e+00  8.3350531243856505e+00  8.6267510318525620e+00  8.6281455232487705e+00  8.6528426821609496e+00  8.6238341098425408e+00  8.5247588277680126e+00  8.5190608302920303e+00  8.5252231492164832e+00  8.5076605829343919e+00  8.4954467385545485e+00  8.4428137653816311e+00  8.3638569079794802e+00  8.3550807248909997e+00  8.3783464529391409e+00  8.3612811425779920e+00  8.3081840323612735e+00  8.3030256658562269e+00  8.3023028028211971e+00  8.3203527421581391e+00  8.1890622825582273e+00  8.2038168576475829e+00  8.1816499742156417e+00  8.1676656620155761e+00  8.1663121861187129e+00  8.1898757214714735e+00  8.1755532566429121e+00  8.1796406418758938e+00  8.5467386128950196e+00  8.5128091847432508e+00  8.5382898449674585e+00  8.5315808671926039e+00  8.1046494435229466e+00  8.1100526701355911e+00  8.5271562048931280e+00  8.5333258638414922e+00  8.5157286543839561e+00  8.5314632917144628e+00  8.4487874200868234e+00  8.4682582481918356e+00  8.4613880803809085e+00  8.4711468591126025e+00  8.1257606166177521e+00  8.1384235599241261e+00  8.1652627223692313e+00  8.1525165789328859e+00  8.1322229146944025e+00  8.1501832939919545e+00  8.2473728062350151e+00  8.1873273717409205e+00  8.2009938464434349e+00  8.2267009728158307e+00  8.4821221349960716e+00  8.4821249228880138e+00  8.4899126472953661e+00  8.4904649244345762e+00  8.5143128763296829e+00  8.5274294192168796e+00  8.5162883606498578e+00  8.5134629593088231e+00  8.0754045622985924e+00  8.1131896712291098e+00  8.1232538625200910e+00  8.1090361569361242e+00  8.2004549760379923e+00  8.1964274563239155e+00  8.1891555789743418e+00  8.1914286703917867e+00  8.1800792745103159e+00  8.1958007546554228e+00  8.2265429818354363e+00  8.1901801228179174e+00  8.3737842469223427e+00  8.3742991804939990e+00  8.3735082140210668e+00  8.3782527572142484e+00  8.1568037223382976e+00  8.1587217864228503e+00  8.1681115464668892e+00  8.1615429997431317e+00  8.5602896892689699e+00  8.5714587751183107e+00  8.5673082112202845e+00  8.6021343056816377e+00  8.0821236677554325e+00  8.1107288761640959e+00  8.0992703509820512e+00  8.0880549196115741e+00  8.4066970291103260e+00  8.4016361007742013e+00  8.3657528032093431e+00  8.3862722578935092e+00  8.3835564108035179e+00  8.3807504542645983e+00  8.3749140346455562e+00  8.3886202264239813e+00  8.5541689332634689e+00  8.5103785643210408e+00  8.5343482891166715e+00  8.5204558235821626e+00  8.6274470359975108e+00  8.6260973340906233e+00  8.5981472185661953e+00  8.6303044696011266e+00  8.5515725499240460e+00  8.1512286156184786e+00  8.1447969450395856e+00  8.1151542100177156e+00  8.1694074490764486e+00  8.6939137167905365e+00  8.6042005440537555e+00  8.6276778040851898e+00  8.7279515950137530e+00  8.3672375361902649e+00  8.3660107629304825e+00  8.3707658118226238e+00  8.3666388443302928e+00  8.5365115680296793e+00  8.4749541398755408e+00  8.5238858829113813e+00  8.4761812954683631e+00  8.6560555974490629e+00  8.6788772522189319e+00  8.6722632174082150e+00  8.6587471909388842e+00  8.2362186290695991e+00  8.2453547099664775e+00  8.2079088728679004e+00  8.2281347369084994e+00  8.6384455059909371e+00  8.6834333332107470e+00  8.6428579727754631e+00  8.6454071820483289e+00  8.5249908755460400e+00  8.5293578955489515e+00  8.5359108629179534e+00  8.5195076965069099e+00  8.1083685846217861e+00  8.1075518857903397e+00  8.1241269595959853e+00  8.1394234723743892e+00  8.2034107092166479e+00  8.1655669823293611e+00  8.1427572066252445e+00  8.1650986766753952e+00  8.1454939969271578e+00  8.1875738241243496e+00  8.1954256041411568e+00  8.1834289312629789e+00  8.5951479713440673e+00  8.5599053386977282e+00  8.5773190400002619e+00  8.5679881270812253e+00  8.3710615615119259e+00  8.3262497033863330e+00  8.3553814526326313e+00  8.4616284506875026e+00  8.5038974087027839e+00  8.5045952600989931e+00  8.5220751071759722e+00  8.5183601977587369e+00  8.2703063657949869e+00  8.2467755659429471e+00  8.2424380076928134e+00  8.2358660806854100e+00  8.1838785664852232e+00  8.1894508967731579e+00  8.1818053461217009e+00  8.1914664789572580e+00  8.3755809688356937e+00  8.3849042874285491e+00  8.4292200338801972e+00  8.2231398757719543e+00  8.1321902530450050e+00  8.4760520458465187e+00  8.4414654119726169e+00  8.1319113142592112e+00  8.1295348236280116e+00  8.1250991017899352e+00  8.1330871587228586e+00  8.6412480518660413e+00  8.6212547683597212e+00  8.6460487992135597e+00  8.6294959964346809e+00  8.3416126770350125e+00  8.3444261498108094e+00  8.3386805263745547e+00  8.3586276505458610e+00  8.3705465474820038e+00  8.3842476351747806e+00  8.3669856293144864e+00  8.3453465016451638e+00  8.3184467407465146e+00  8.3184386352463964e+00  8.3183597810421208e+00  8.3184419365922544e+00  8.4808819668066544e+00  8.4808977589688919e+00  8.4809406534029375e+00  8.4804683797662577e+00  8.2205144227448557e+00  8.2215704869821113e+00  8.2063598340264079e+00  8.2298080893842886e+00  8.1654269076792509e+00  8.1893043729667205e+00  8.3602132847476405e+00  8.3791120073338963e+00  8.3371079687831244e+00  8.5324682434538399e+00  8.5424998343877618e+00  8.5384243336914967e+00  8.5497332357849984e+00  8.1495045050254440e+00  8.2036785383752289e+00  8.2299098603851082e+00  8.1850929289305210e+00  8.2934499480299859e+00  8.2799250054300586e+00  8.2741873323680508e+00  8.2662867256180146e+00  8.4980489935413193e+00  8.4661770109477317e+00  8.6241155375222078e+00  8.5975164846677785e+00  8.1655797903633651e+00  8.1734683229938980e+00  8.1781492342148052e+00  8.1624168715208292e+00  8.5460508925916230e+00  8.5158050135699401e+00  8.5306999866333157e+00  8.0842030508340521e+00  8.0821053803402805e+00  8.0824044015659116e+00  8.1200524232098470e+00  8.6366274642312035e+00  8.6384097746718300e+00  8.6416341208956045e+00  8.6416739243382672e+00  8.0619753878277507e+00  8.0000000000000018e+00  8.0000000000000000e+00  8.0547496109338006e+00  8.5146352692533540e+00  8.5367021061917949e+00  8.5320422086153034e+00  8.1454219432742274e+00  8.1803732401497644e+00  8.1522046119189699e+00  8.1689782569279821e+00  8.3335503236328048e+00  8.3497214532708490e+00  8.3073571678111886e+00  8.1906354242790425e+00  8.1603183491484224e+00  8.1739412184262221e+00  8.1510860356549166e+00  8.1260611166672838e+00  8.1484226069594978e+00  8.1217515086718048e+00  8.6748981362069113e+00  8.5163957411055531e+00  8.5210846490856351e+00  8.5270153420036916e+00  8.1313662637092765e+00  8.1327207861939161e+00  8.1081724020003776e+00  8.1587747921347678e+00  8.4332089808601864e+00  8.4206466573778140e+00  8.4706737431994537e+00  8.3867709759124978e+00  8.1748393680625782e+00  8.1774885381843401e+00  8.1592981856036317e+00  8.1867171018689167e+00  8.2534163616074920e+00  8.2514541467112501e+00  8.2590999691053142e+00  8.2352699774795219e+00  8.1608819257305036e+00  8.1471238672317003e+00  8.1578644293262688e+00  8.1383188226042105e+00  8.4637747995123203e+00  8.5281629691526621e+00  8.5318852374880940e+00  8.5167415440415581e+00  8.5330230527613793e+00  8.6085866970486400e+00  8.6003698932920791e+00  8.2258647834612386e+00  8.2733313302426836e+00  8.2649571500941708e+00  8.2836203201981995e+00  8.3540392670301369e+00  8.4443629447803588e+00  8.6096638349169670e+00  8.5991044135417329e+00  8.5756555708679070e+00  8.1671356415753671e+00  8.1542420688906692e+00  8.1816742180099755e+00  8.1512481906362151e+00  8.5130187154622075e+00  8.2583599109077870e+00  8.3015481457269971e+00  8.2676632090324933e+00  8.3101510682687518e+00  8.5583692917818119e+00  8.5840109013552635e+00  8.5481758530103402e+00  8.5672945939720595e+00  8.1476396055765292e+00  8.1461480676368989e+00  8.1509999006512999e+00  8.4667969414737989e+00  8.5015731199859097e+00  8.4828058277752820e+00  8.4106490794304545e+00  8.4072728814087263e+00  8.4379623048591252e+00  8.4180092678925718e+00  8.0960631224684754e+00  8.0643063819450003e+00  8.0737749597194952e+00  8.0662363234975274e+00  8.5965785576281011e+00  8.5930841055580061e+00  8.5700699489513923e+00  8.1735939620040750e+00  8.1680080975699028e+00  8.1843794019321354e+00  8.1798379522557099e+00  8.8174396845814087e+00  8.8142068311028385e+00  8.7938423413171058e+00  8.8337261467006893e+00  8.1285425315812017e+00  8.1219427759160325e+00  8.1129566597585647e+00  8.5380303701775055e+00  8.5432629363753883e+00  8.4151493460892226e+00  8.3957506216904516e+00  8.4288878550056907e+00  8.3751831898141944e+00  8.4275429426288042e+00  8.4131369989367020e+00  8.5096859445732456e+00  8.4930535489034629e+00  8.5006018723511119e+00  8.4916037217459568e+00  8.4816831075092676e+00  8.4888297500012566e+00  8.1909644285948229e+00  8.1989623571861365e+00  8.1765996576154141e+00  8.5464961503864707e+00  8.5709162049670251e+00  8.1819155267646888e+00  8.0000000000000000e+00  8.1833540643758322e+00  8.1619635650649442e+00  8.2355467172275816e+00  8.1863647705766596e+00  8.1704823377040263e+00  8.1313823516538264e+00  8.1384943395849128e+00  8.5495321999798684e+00  8.5488761316337829e+00  8.5549005048170166e+00  8.5543301459711945e+00  8.0721869901713035e+00  8.0802706321027262e+00  8.0570684295445325e+00  8.0629459725526065e+00  8.6512476033863823e+00  8.6427230807062205e+00  8.6313354970263969e+00  8.6291845485178644e+00  8.1366675875358538e+00  8.1375384852449724e+00  8.1369415600864450e+00  8.2093945616423607e+00  8.1870437006184922e+00  8.2062428320055574e+00  8.4833347114484638e+00  8.4773392917395327e+00  8.4814452661974684e+00  8.1745421936617575e+00  8.1773274555388742e+00  8.1828275731842446e+00  8.1185525694455123e+00  8.1327590263967373e+00  8.1276832715252834e+00  8.1084981638173836e+00  8.1341194406054207e+00  8.1292864545773291e+00  8.3361975029387256e+00  8.3614710319217611e+00  8.5418154812297242e+00  8.5407259693770232e+00  8.5257092336498008e+00  8.4638753027658495e+00  8.5972504167833499e+00  8.2896743771781303e+00  8.2760932789819162e+00  8.2680174441366798e+00  8.6200589967828947e+00  8.6475872653668606e+00  8.4817928126523281e+00  8.4746944686142776e+00  8.6329978469429083e+00  8.6587911168376195e+00  8.6761230315369300e+00  8.1901506467741800e+00  8.1956671178239482e+00  8.1741937981032837e+00  8.6279483984397149e+00  8.6546240852078871e+00  8.6385962587424174e+00  8.1611375888682485e+00  8.1608620599204755e+00  8.1340363657425261e+00  8.1356802100268535e+00  8.5236795936719645e+00  8.5242373044101694e+00  8.5277795915847499e+00  8.5244331285102870e+00  8.4146534949096132e+00  8.4020441019260907e+00  8.3952097161285888e+00  8.3891347391464688e+00  8.1571453497158917e+00  8.3225551802091200e+00  8.3374427487597043e+00  8.5436003778608107e+00  8.5150112026893545e+00  8.1221743729379323e+00  8.1358655208034634e+00  8.2199126734681247e+00  8.7218118645542404e+00  8.7392654920635522e+00  8.6972946965689264e+00  8.7332540072697658e+00  8.7360273632113117e+00  8.7279932975385321e+00  8.6341058791911198e+00  8.6337442730761538e+00  8.8451373829129309e+00  8.7814981633430609e+00  8.6353928782055771e+00  8.6148087795031536e+00  8.5997656283709905e+00  8.6183416611025070e+00  8.2422470426182368e+00  8.2859317409708009e+00  8.2724357442780949e+00  8.2543904967070016e+00  8.4124760626910025e+00  8.3865964095942012e+00  8.4154462900675870e+00  8.3892201055040374e+00  8.4770249279330407e+00  8.4494133179965711e+00  8.1209629323565569e+00  8.1261606360476080e+00  8.1238574077646675e+00  8.5224876526078965e+00  8.5301427925726649e+00  8.5248471964071229e+00  8.5278836081449931e+00  8.1945036267070641e+00  8.1881349588879466e+00  8.1897360540045838e+00  8.1901871456927342e+00  8.1479764101870025e+00  8.1294231711821059e+00  8.2063893984358227e+00  8.1817365563572793e+00  8.2208228268005552e+00  8.4778038716912896e+00  8.4704937601243522e+00  8.2022774698776839e+00  8.1841961736352467e+00  8.1963846089312220e+00  8.1292520231349865e+00  8.4865606535362801e+00  8.4674010309276770e+00  8.4814540706218668e+00  7.9999999999999991e+00  7.9999999999999991e+00  8.0834161975580177e+00  8.0712061469995540e+00  8.5921810680168296e+00  8.5815565630741890e+00  8.5911224308463954e+00  8.5788691394894308e+00  8.3378161457239575e+00  8.2585873470242781e+00  8.2635267820464282e+00  8.2539749719334861e+00  8.2672513038014550e+00  8.2309432342985680e+00  8.2265937419933568e+00  8.0801954698258385e+00  8.0000000000000000e+00  8.0800630002606688e+00  8.0958010315588371e+00  8.5569111405554601e+00  8.5764234294367583e+00  8.5855095813570923e+00  8.5699756104250113e+00  8.5593695982801368e+00  8.5546636547594872e+00  8.5613329463268961e+00  8.5619076666767153e+00  8.5291307633467284e+00  8.5499720085599353e+00  8.3770836074799657e+00  8.3714973087487561e+00  8.1079308020205936e+00  8.0946032106652375e+00  8.1818150764904534e+00  8.2099966535978339e+00  8.2093594671583112e+00  8.1894161445436602e+00  8.5523622224097036e+00  8.5625980859015876e+00  8.5433893809754657e+00  8.5064076300417533e+00  8.5350642661178551e+00  8.5088665846505585e+00  8.5505895948994635e+00  8.2147641651959713e+00  8.2217507224208841e+00  8.3777581845869893e+00  8.3774007762292193e+00  8.3647065816199415e+00  8.5456247774829404e+00  8.5375142594745661e+00  8.5271981853657906e+00  8.5214593830365235e+00  8.7039185848438532e+00  8.7218780170154950e+00  8.1845927904460432e+00  8.1870244760721658e+00  8.1894696128411955e+00  8.1951786268851254e+00  8.3348214911953864e+00  8.3385040749783350e+00  8.5951924259064345e+00  8.5852566914437478e+00  8.6002429988399385e+00  8.5608273388654066e+00  8.3630216713343710e+00  8.3771524273397056e+00  8.3632492429511167e+00  8.3599881301974293e+00  8.3632667357449559e+00  8.3710682337951816e+00  8.3723011626877053e+00  8.8184007667450786e+00  8.8346257234076546e+00  8.8691230179601916e+00  8.7726911701871408e+00  8.0908464210154776e+00  8.0619688264095366e+00  8.0462615995559013e+00  8.0609423293820726e+00  8.1234014261935492e+00  8.1073673797065986e+00  8.1126269662339308e+00  8.1264792830855495e+00  8.3463966039910229e+00  8.3808110592447189e+00  8.3639005524175936e+00  8.5601755798808821e+00  8.5283630979845277e+00  8.1653211958538883e+00  8.3712274186804407e+00  8.3564997809042474e+00  8.1262553987226660e+00  8.1228430635945497e+00  8.1277554778363861e+00  8.1307013650565754e+00  8.0000000000000018e+00  8.0735592920973946e+00  8.0000000000000000e+00  8.0881520835258982e+00  8.5442502036394092e+00  8.5784042389076500e+00  8.5435786973398393e+00  8.5643026543157763e+00  8.1252656804331078e+00  8.1317300095830269e+00  8.1307426949117048e+00  8.1334580867019515e+00  8.0740838771684071e+00  8.4264880534911839e+00  8.3988978833622205e+00  8.4219605576821035e+00  8.4501839604153997e+00  8.5138350417570301e+00  8.5089616073704839e+00  8.4788465367811430e+00  8.4975903626759521e+00  8.4810377684608067e+00  8.4393176932937966e+00  8.4767197933447722e+00  8.4806556835458178e+00  8.2503716940613927e+00  8.2568890170674276e+00  8.2637162520271588e+00  8.2695403993651606e+00  8.2277215479543635e+00  8.2186803348739268e+00  8.2331824926579724e+00  8.4086777873258338e+00  8.3784066032948026e+00  8.3949951721436573e+00  8.1160037426573552e+00  8.5262665096260868e+00  8.5369721113622248e+00  8.5258461078425007e+00  8.1708712057822996e+00  8.1688354625641075e+00  8.1909687563218139e+00  8.1322310004213314e+00  8.4675767163844977e+00  8.4853710213707760e+00  8.4868453429288149e+00  8.4497500654453699e+00  8.6698882366031054e+00  8.6792710156875792e+00  8.6595470984347962e+00  8.2993676181709812e+00  8.3094025771266082e+00  8.3187631213967030e+00  8.1177369238588657e+00  8.1063003423858557e+00  8.1215725014509310e+00  7.9999999999999991e+00  8.0000000000000000e+00  8.1010975754304813e+00  8.2166898121432297e+00  8.2153601894931860e+00  8.2245723814108409e+00  8.2110058777107611e+00  8.7786167853951227e+00  8.7131957127707693e+00  8.7846304218554803e+00  8.7834211740278416e+00  8.5616829806135542e+00  8.5860346447206144e+00  8.3287708033962797e+00  8.3464615553539030e+00  8.2855606839537668e+00  8.3501069081513677e+00  8.7421911705403286e+00  8.7132641988452431e+00  8.1015742257414871e+00  8.1163040009091052e+00  8.1004698154133123e+00  8.6927789391474857e+00  8.6953372010677406e+00  8.5087922068948281e+00  8.5094973629177009e+00  8