<?xml version="1.0"?>
<VTKFile type="UnstructuredGrid"  version="0.1"  >
<UnstructuredGrid>
<Piece  NumberOfPoints="1322" NumberOfCells="4468">
<Points>
<DataArray  type="Float64"  NumberOfComponents="3"  format="ascii">16.689264 28.087862 4.681421  17.803272 26.916655 4.99096  17.600401 27.627192 3.75839  18.61260060579744 27.6942864314527 4.341685428840313  7.134238 38.033134 5.162254  5.471139 38.293011 6.257996  6.278216 36.958721 5.996462  6.55705123914489 37.43763158013925 7.155721224225892  19.29003 31.347061 6.649946  19.078903 32.53672 6.848762  20.516321 32.333843 7.080783  20.43282607868854 32.80534576231669 5.19786697529252  10.527554 37.101593 5.012418  10.175575 36.475452 6.27863  8.553705225564389 37.51780019517781 5.746146460656225  9.1101152320465 35.60056369797466 4.686654333314665  18.913067 32.730968 1.706859  17.419348 33.317959 1.604516  17.996798 32.179237 2.285506  18.83043690729985 32.91646389052119 3.356753890621792  8.156034 20.740074 1.55544  8.058113000000001 19.195162 1.844997  8.51022 20.331377 2.851391  6.689901012542164 19.71441067171363 2.573325181111242  10.327099 25.832195 7.801149  9.417182 24.226482 7.871381  9.199097 25.166599 6.939151  11.20273316973343 24.12296063450912 6.287174060556432  28.44947532506188 19.97578980697011 2.771330124666097  28.81391 19.862478 1.206187  27.41230703368459 19.30353272607462 1.433204144484342  28.02411280415201 20.66322277099767 2.023723280165352  12.174349 36.687149 3.402411  13.054819 37.439819 2.723185  13.227704 35.750675 3.101428  11.9426724004209 36.27947408687604 1.744086016475644  9.418782 36.62027 2.76151  10.139003 36.660351 1.696656  10.716097 37.658413 2.579189  10.49146381434701 35.37273828322018 2.82856372696966  21.484169 26.913935 0.735076  22.136486 25.669546 0.03180900000000003  22.974754 26.813484 0.03180900000000003  22.44338484614154 25.45412824219603 2.114305267393645  10.02991256033086 25.51280967127501 5.08797282303941  9.067150471649626 24.04363307613733 5.998936215734492  4.692637 30.583151 4.861573  3.597645 30.498425 3.925093  3.271394 31.200409 5.96299  3.7392 31.924501 4.6527  22.581383 24.367584 5.006853  23.462006 24.338789 3.801003  23.333458 23.12565 4.290676  22.17860262013036 23.47748294706035 3.427233238250511  5.309221 28.433802 3.143211  3.788788 28.576895 3.646074  5.393256 28.362551 4.979815  4.583125 29.63793 3.774679  25.955263 22.939219 2.888069  25.48851 24.547083 2.786266  26.706257 24.535597 2.642296  25.81141670688831 23.93695557629064 1.555956866094582  0.723676 22.247635 6.237782  1.035433 21.995855 4.719245  1.617396863766204 23.90825399866383 5.662740939954083  2.33580866482328 22.46104352038669 5.176941472232487  21.32399467801493 29.46481688486215 2.501692532608772  21.81129594242088 27.61894376984815 2.02912003714918  19.99101717260175 28.48956196332004 3.47517800293146  20.316442 29.100632 1.553422  2.916744 34.092014 6.696283  3.064003 34.401306 5.170222  1.772542356220217 33.47702460672362 5.233058680193142  1.348408170655507 35.24965815797942 5.69069693769211  18.144348 38.558079 3.966154  19.58990445034726 36.56123088616889 3.645538595873164  19.32448472374304 37.84839367045804 1.835738256401388  19.96377088371934 38.52211425438931 3.49966911886391  3.400465 32.449215 16.763197  4.800648 33.216667 16.499775  4.198258552881716 33.39421215672068 15.14291225398239  3.24898509940653 34.33486442475765 16.42106082231366  4.516026 35.888237 18.611467  3.509808 34.625431 19.140245  2.948680626065284 36.46734769150365 19.40666729323499  3.254995841415359 36.4830360273038 17.63665009741101  9.998944733981187 23.52680276241333 4.976270394940078  8.391193197789486 24.84237436628321 4.885845351147332  16.467451 36.838165 0.03180900000000003  15.058802 38.076004 0.03180900000000003  14.75228358371658 37.52210097763763 1.220625024170582  15.99179873801506 38.23747978778511 1.35526893362849  1.318116 28.796633 7.423093  2.304214 29.663908 6.663404  1.987873 28.078243 6.79968  1.443989443449543 29.67489401138662 5.519959937240876  24.024965 26.772093 4.412606  23.813847 27.754816 5.502519  24.977448 28.712324 4.442769  23.65320660407859 28.17129886489659 3.738320164837698  2.058006 40.003617 18.939367  1.658614 40.003617 20.244114  0.8298 39.370419 19.70191  2.094449807866842 38.88109055929553 19.69564574016417  6.210875 22.979139 6.899174  7.187508 22.832134 7.868849  6.150725758812889 21.2106697593875 6.514745827047267  7.730035494617918 22.77925327767917 6.132855836571848  19.254299 31.70097 2.241933  18.1398786279228 31.81053109879803 4.671394254067746  19.60888054445638 30.52771963507711 4.145408915266929  2.371933 40.003617 5.941247  3.420663 39.324146 5.545565  3.518383 40.003617 6.822994  2.868937018588673 38.40777353041463 7.086118923181436  4.301918388490042 38.76732505619694 8.142775428778121  5.60376 40.003617 9.540986999999999  4.827529 40.003617 7.914876  4.149047 40.003617 9.753643  24.970671 17.243484 4.22919  25.634613 16.906595 3.379239  24.016993 16.802717 3.32941  24.09446861273442 17.91847682742779 2.620841973758472  1.198119920785469 33.69055522522897 3.730652810167439  1.62176526984662 31.76625787935345 4.654284379555587  2.840045 32.38364 3.48362  4.623353 37.956009 19.887455  3.820722 39.003403 19.38345  4.453475 37.855915 18.371744  3.386178217167082 37.84337071504968 20.00798768298544  28.476978 15.800415 2.039324  27.647249 14.112927 1.988805  26.935184 15.257313 2.185978  26.8614620681676 16.02975962595324 1.415462846592458  1.55471591745691 37.60998374455253 20.10910395074165  0.65379 38.70351 18.381653  16.066685 34.909496 3.912504  15.641269 33.76136 4.809179  16.75459640245919 32.8258308105836 3.56148371650478  17.53206200961398 34.06475647870273 3.447705239652614  6.400694 39.279545 6.490054  5.443164956425464 38.02534619565261 7.538158496659907  5.660607195491386 38.93789623218091 7.889121603402454  9.815061999999999 38.669121 11.854831  8.745260217386583 37.18636942460312 10.91343837701522  9.359136085805602 38.51774938447072 10.21770314327276  10.269741 37.14492 11.633819  4.192839 19.430487 2.805211  4.768217 18.16951 2.024326  4.167414 19.316839 1.219337  5.697740209529324 19.29679235724333 1.378965080068427  20.653847 40.003617 5.228409  19.817831 39.399994 6.85935  19.203974 38.720341 5.467098  20.634370472458 38.22883940634366 6.183422247546207  2.524228974944827 37.86811110861701 13.48982177907233  4.398735 37.943054 12.925835  3.232654277322181 37.60379873106396 11.66564182543271  3.433657 38.769642 12.510438  3.613894 39.147453 11.217586  4.33093764338707 37.43307901413506 10.37495012246891  2.811140826295371 38.39480187433625 9.454320485460709  24.84233314262383 25.90155901559168 1.57038782502973  26.133881 24.505461 0.03180900000000003  24.652531 24.694885 0.03180900000000003  26.40012136054056 25.75539111624172 1.294851272476892  10.764468 36.229954 9.460483  10.628813 35.333916 8.609537  11.479316 34.903507 10.013671  9.591999096146756 34.5502019965144 10.41159897394621  23.9489480896031 34.53398785056942 7.947339790751329  26.04003 34.187691 7.932608  24.7607546700074 32.61362962220112 8.099098226329099  24.38137092269877 33.82008621585304 6.522240756380782  8.080991503902705 35.60890325527839 6.985471778119003  6.928006 28.616531 4.927098  6.38896 27.392107 4.863238  2.90877360633878 36.45961293831254 8.072398739649996  4.283804697233704 37.05254321136133 8.227361909889151  24.390762 31.868341 3.725139  23.926926 33.124638 4.149854  22.35972685878063 33.02147181483703 3.935682038259421  23.22005643815945 32.18929002370465 5.618465429950698  1.578519 26.796082 6.927712  0.02680700000000003 27.143703 5.938089  0.9284750000000001 27.481106 7.289287  1.10996529912293 27.76167133512863 5.925374901202198  25.975105 17.765808 4.327852  25.48942801927428 18.5780475429667 3.357529477158949  18.459883 29.805592 7.018691  18.180218 29.268013 8.212474  17.410721 30.471266 7.885829  16.95295705364332 28.18153714093322 7.515742269411099  20.75993500295389 26.08739868405047 5.149934948623424  22.4834761693876 28.02299939870657 5.746967626249968  22.097164 27.482759 6.678783  22.654032 26.782141 5.890021  18.743303 39.228806 0.876576  18.289949 37.754486 0.03180900000000003  17.33328585518652 38.22372536677907 1.53838246634221  23.233301 35.974857 5.871583  22.241137 36.626652 6.388784  22.110075 36.290401 4.619812  22.03351629490124 34.7740411416124 5.155484253039561  21.40787363719597 24.19509324997104 5.659643441627859  22.886604 22.931318 5.459324  21.202272376067 22.11913042096302 5.948576091520406  21.16716330418489 22.90039911241668 4.410218476680502  16.550137 33.184628 6.061399  17.510687 34.62933 5.25532  18.169704 33.365044 6.423727  13.19814404375542 33.02711569682192 1.810683667281568  14.740217 31.589647 1.212294  13.43524818148703 31.29104172414542 3.606030812482603  12.50340314408974 30.65607948441384 1.431192467216043  13.92093 38.12841 2.360177  14.022358 39.234661 0.878526  14.538574 39.131676 1.817542  4.225823 35.728775 7.436896  6.126804736996271 36.43724937713166 8.647707751480747  4.938836 35.103443 8.793277  30.082388 13.280383 0.632143  30.359232 12.944481 0.932959  30.127121 13.583051 1.345778  29.657284 12.961717 1.127946  9.984585115667512 33.04290307242977 5.137501854508343  11.34651025707172 31.04077451114279 5.38288769640782  10.66151962569877 32.64217152292181 6.576126582869676  10.44273598646105 31.36554558504761 6.803852099577376  21.484606 20.7663 4.281186  22.60822939558215 22.08372118245991 4.067480874910361  2.542523 32.638454 7.035655  1.555327 32.322655 7.920712  2.020437 33.460739 8.317389  1.164582996718431 33.82683509192301 7.247827324432883  5.896748 35.755142 13.252295  6.086187 35.758133 14.73333  5.045902 37.145004 14.118255  4.821356119810141 35.50527216667835 15.17457355748417  2.832286 33.945087 11.258298  0.674466 33.19537 11.151496  2.19204 32.747021 12.263416  2.181517898003563 34.80176028044504 11.89307923269051  6.383238359021103 21.21022698577726 1.587732073852016  7.502049009252489 22.03923979647144 3.25
[...]
<PointData  Scalars="p_O2"> 
<DataArray  type="Float64"  Name="p_O2"  format="ascii">9.9960482671814788e+01  1.0002876445333146e+02  1.0003061916894366e+02  1.0000328184931385e+02  1.0004168954648755e+02  9.9624921434170048e+01  9.9846899937314916e+01  9.9395135484641898e+01  9.9926047118062613e+01  9.9950179737286149e+01  1.0002113821778320e+02  1.0000659261867473e+02  9.9898760235372762e+01  1.0001720458356249e+02  9.9821620208320823e+01  9.9999469164958001e+01  1.0000208199548892e+02  9.9992401769923177e+01  1.0003348415342131e+02  1.0000632970041539e+02  9.9983713419464777e+01  9.9994565594082459e+01  9.9993307821699560e+01  9.9964198240993639e+01  9.9992664946490763e+01  1.0002087909059938e+02  1.0001070124648359e+02  9.9982893369484046e+01  9.9896608709716375e+01  1.0005678779005656e+02  1.0002091841939570e+02  9.9790520696110050e+01  9.9984205647282067e+01  1.0004867972935034e+02  9.9991451811323472e+01  1.0006755191214600e+02  1.0003969129537239e+02  9.9931658206122194e+01  9.9902431642469651e+01  1.0004307220754336e+02  1.0001555823769360e+02  9.9976774982636854e+01  1.0002678338499219e+02  9.9965021646595730e+01  9.9983216364471033e+01  9.9975302348877349e+01  9.9873372355045674e+01  9.8448301394551805e+01  9.6323505377988354e+01  9.8216206690924594e+01  1.0002953917970008e+02  1.0000939721206309e+02  1.0002903766118325e+02  1.0004626097025860e+02  9.9903818510187890e+01  9.9578613626776772e+01  1.0001761868281662e+02  9.9781971906570348e+01  9.9957866253915782e+01  9.9978233385076621e+01  9.9944689434156885e+01  9.9990642385712178e+01  9.9072766063380584e+01  1.0197976305986411e+02  8.4622208141729004e+01  9.5482234575963616e+01  9.9934255816743601e+01  1.0001460689404787e+02  9.9957157829257966e+01  9.9949136908265373e+01  9.2692623896593446e+01  9.4661941298719768e+01  7.5652869150942735e+01  6.7390293222332460e+01  9.9984022539495243e+01  1.0000845470175861e+02  1.0001414148780361e+02  9.9939142502413887e+01  9.4904558236852026e+01  9.8531800434591119e+01  9.3918047524668140e+01  8.5099785707271792e+01  9.7557176425840893e+01  9.5340765051693353e+01  8.7947327289683869e+01  8.8633420228086635e+01  1.0001235323875885e+02  9.9945433272747877e+01  1.0000279961299620e+02  9.9972700482652698e+01  9.9981386610184572e+01  9.9998529542835101e+01  9.9010114603451740e+01  9.2564249815175359e+01  8.8956397272515616e+01  7.4797633767507619e+01  9.9987333718259691e+01  1.0009944859019285e+02  1.0005130491448527e+02  1.0007057436061811e+02  9.8483623436524283e+01  9.8302185822581734e+01  9.8320007628185365e+01  9.2259376255554528e+01  9.9955977385792437e+01  1.0001282669648531e+02  9.9998398163315159e+01  9.9938549406248598e+01  9.9989062084405447e+01  1.0008542136529957e+02  1.0004908430811463e+02  9.9144401392794663e+01  9.9380458388621506e+01  9.8145072405494204e+01  9.0568442212414126e+01  9.5508874220663898e+01  9.9698236351673671e+01  9.9036534931926454e+01  9.8667761885855541e+01  9.9958405693026691e+01  9.9990912639256734e+01  9.9848970692129541e+01  1.0005252114177020e+02  7.6121572173835276e+01  7.3086778808235394e+01  9.5283871975808580e+01  9.8677673219173343e+01  9.8039023770064205e+01  9.8114281743885456e+01  9.3572039593724526e+01  1.0004829239862480e+02  9.9984187825618633e+01  1.0002194498765145e+02  9.9984782723143482e+01  7.3185717801491165e+01  9.7472026791712906e+01  9.9970835861531029e+01  9.9923328347515053e+01  1.0004472429663589e+02  1.0000340809922882e+02  9.9781776150302107e+01  9.7915684755087852e+01  9.8115184287088169e+01  1.0000572231597313e+02  9.9670235766768997e+01  9.9946706677080527e+01  9.9919416181859276e+01  9.9978924345566540e+01  1.0000706405329719e+02  9.9986281449111189e+01  9.9979459000790555e+01  1.0003920779854025e+02  9.9993476532636791e+01  9.9992238595380925e+01  1.0003167947901341e+02  8.7268062059443153e+01  9.7752667590814980e+01  8.9421074919359626e+01  9.7890767837237945e+01  9.7327666740548636e+01  9.2934036243656621e+01  8.9321755326269781e+01  9.9954860914224057e+01  9.9944963199717847e+01  1.0002198477970282e+02  9.9797137135216516e+01  1.0005583431389435e+02  1.0005795864156828e+02  9.9767330700168230e+01  9.9910678559413327e+01  9.9916438454613797e+01  1.0016742435152644e+02  9.9961670284938961e+01  9.9963473023266346e+01  9.9676509000359445e+01  1.0004469226214869e+02  9.9984837892452774e+01  8.2467070798488564e+01  9.3476620796825770e+01  1.0002594745029448e+02  9.9986944885939621e+01  1.0002508036853241e+02  9.9979921786750452e+01  9.6782398320042446e+01  4.0000000000006850e+01  9.8711928722035651e+01  7.3042204837432038e+01  1.0004425964413501e+02  1.0004476265484213e+02  1.0009073317090595e+02  9.9952661330084155e+01  1.0009200644635580e+02  9.9963021962623714e+01  1.0002230797399773e+02  9.9954993274113548e+01  1.0011243938072222e+02  9.9956499364838464e+01  9.9980256882402784e+01  1.0000184545399466e+02  9.9962597666868731e+01  1.0001781427084758e+02  1.0001398194452297e+02  9.9976747076581489e+01  1.0001816867822956e+02  9.9973284553222555e+01  9.9988377542854380e+01  9.9976406116406778e+01  9.9961196280193960e+01  1.0005138804599943e+02  9.9981087143271964e+01  9.9932427992923195e+01  1.0002622311056378e+02  9.9995025104633271e+01  9.9934445000532122e+01  1.0001248077648144e+02  9.9967016861552338e+01  1.0000437662643942e+02  1.0001986334302451e+02  9.7098877243188653e+01  9.8546907962872439e+01  9.9102620804197485e+01  1.0000470924012210e+02  9.9993838286903966e+01  1.0001019386269360e+02  1.0002620252936295e+02  9.9997500627219139e+01  9.9982200125687228e+01  9.9981598634153713e+01  9.9976438474177669e+01  9.9987849165878387e+01  1.0003444230370252e+02  9.2300796714433005e+01  9.8903048655628112e+01  9.2601789516645283e+01  6.6658933789588062e+01  9.9002631690619751e+01  9.8772085008537033e+01  9.7602519231839679e+01  9.4334744596733117e+01  9.4140715118768739e+01  8.5652977637524828e+01  9.4069910990083315e+01  7.7520078673286662e+01  9.9949733712946468e+01  9.9953003398037481e+01  9.9953315980947295e+01  9.9858122974354785e+01  7.2005020039313237e+01  9.5093528562624215e+01  9.9912739309145508e+01  1.0001001618398978e+02  9.9921513047745009e+01  9.9992658286192622e+01  1.0001460861082745e+02  9.9979313308483668e+01  9.9822545364167581e+01  9.7429249776259965e+01  9.8542129324039450e+01  9.5617560172781879e+01  9.8201905852074617e+01  9.8312819706073100e+01  9.6972109238994790e+01  4.0000000000006850e+01  9.9175114984473240e+01  9.9688411038895268e+01  9.9954800301617254e+01  9.9996999660262176e+01  9.9703325412128905e+01  9.9987041859091491e+01  9.6207175578525479e+01  1.0002521402731595e+02  1.0002315620383318e+02  9.9967016060382377e+01  9.9969704225327106e+01  1.0000321907899550e+02  9.9961927409146838e+01  4.0000000000006850e+01  9.2867521333433316e+01  4.0000000000006850e+01  6.5010640846935146e+01  9.9980695307652880e+01  9.9990692873617959e+01  9.9991411262909125e+01  9.9988789395081568e+01  9.9969826854687028e+01  9.9966023697514842e+01  9.9982661965508598e+01  9.9996574088895599e+01  1.0003496000246572e+02  1.0002073567676257e+02  9.9986019411433247e+01  9.9967784231823941e+01  9.3021365100320594e+01  4.0000000000006850e+01  8.7890462579140433e+01  6.7991544476706437e+01  1.0006966341236722e+02  9.9984129359804285e+01  9.9920157340556159e+01  9.9902052998382146e+01  9.9954287434172343e+01  1.0004229151410513e+02  9.9940997044263440e+01  1.0028578119952812e+02  9.9782213274615501e+01  1.0001710459291910e+02  1.0005236049558178e+02  1.0000782166437227e+02  9.9915273241334916e+01  1.0000671651934807e+02  9.9812329739499148e+01  9.9905961961391995e+01  1.0006594974995829e+02  1.0010647792031985e+02  9.8700159213634151e+01  9.6198721839192800e+01  9.9812959460384334e+01  9.9980136604823414e+01  9.9870274151873488e+01  9.9417397804504631e+01  9.9986566713314446e+01  9.9988436090854961e+01  9.9951204998716520e+01  9.9953967097134949e+01  9.9437052117528566e+01  9.9956972466589832e+01  1.0001691312376876e+02  9.5580217953825354e+01  9.0827355508036106e+01  1.0091852611214460e+02  7.1280656640017213e+01  9.9589334861975729e+01  9.9657013531478270e+01  9.9634463788000076e+01  9.9082647885493472e+01  9.9994298299748209e+01  9.9988553935869689e+01  1.0004553810915758e+02  1.0000577160144306e+02  9.9996610273474076e+01  1.0000402824020229e+02  1.0002065151382934e+02  9.9928071414642829e+01  7.4748398545923692e+01  4.0000000000006850e+01  7.7462773866275583e+01  6.6610711277755954e+01  1.0001597939842014e+02  1.0002977986734464e+02  9.9939014197214988e+01  1.0002746346284196e+02  9.4930474797231284e+01  9.9980450429130087e+01  9.9963113047455906e+01  1.0001979716438863e+02  1.0002363434484562e+02  9.9975201557555948e+01  9.9903722823177787e+01  9.9828217443199648e+01  9.9895403261529196e+01  9.9985884500866518e+01  1.0001685205785408e+02  9.6800060013773845e+01  8.9836387002214877e+01  1.0002274461698499e+02  1.0010236827874616e+02  1.0008966853996091e+02  4.0000000000006850e+01  9.1557963738894415e+01  9.6864128044811807e+01  9.9973689876712044e+01  1.0002223757640928e+02  1.0000520731049421e+02  9.9973572597027882e+01  9.9990475398273944e+01  1.0001870257553280e+02  1.0000979887439981e+02  9.3606585087887240e+01  9.4925820146731041e+01  9.4366558817184412e+01  7.3547601713198020e+01  9.9649112586385456e+01  9.9865700277720691e+01  1.0001650649198005e+02  9.9992945823031135e+01  1.0000738886659096e+02  1.0000595515059833e+02  9.9984880272773268e+01  1.0001347639982727e+02  9.9991145454751774e+01  9.9949621065254732e+01  9.9952907333698107e+01  9.9972070804289558e+01  1.0000751977543429e+02  1.0000884706906251e+02  4.0000000000006850e+01  4.0000000000006850e+01  4.0000000000006850e+01  5.9240262879866442e+01  4.0000000000006850e+01  4.0000000000006850e+01  4.0000000000006850e+01  9.9999390391959494e+01  9.9951078886900504e+01  1.0003052177022205e+02  9.9986870316351940e+01  9.9989841197499160e+01  9.9998875098180307e+01  9.9994131413913010e+01  9.9985754555761446e+01  9.9991604343244504e+01  1.0000641593484143e+02  1.0005172105742297e+02  9.9959190459023660e+01  1.0000569439975020e+02  1.0002967883357751e+02  9.9944168016855826e+01  1.0001521497929876e+02  1.0004239633635363e+02  9.9958400864850134e+01  1.0000504828580192e+02  1.0000561140411605e+02  9.9986035442478070e+01  9.9971509725478072e+01  9.6516771536436082e+01  8.4056115235604437e+01  9.9945225869571729e+01  9.9994034141989289e+01  9.9952028724198257e+01  9.9992722998470256e+01  1.0001447316766060e+02  1.0003795648505267e+02  9.9995971337541022e+01  1.0000496878508592e+02  9.5356854674978976e+01  7.4888113169555382e+01  9.8554617580305319e+01  9.9359077430810146e+01  9.9889015965168738e+01  1.0005639854419259e+02  9.9920295592930259e+01  9.9923525372489053e+01  1.0002327548658572e+02  9.4062563977058133e+01  9.9894484203301914e+01  4.0000000000006850e+01  9.5665080117099876e+01  8.8389847282927775e+01  9.5898275962913459e+01  9.9987102727632461e+01  9.9990835463841535e+01  9.9944149231126005e+01  1.0002894887827703e+02  9.9960564499117581e+01  9.9995171785723088e+01  9.9987640677997078e+01  1.0002951537922266e+02  9.9931612677087273e+01  9.9934264432302740e+01  9.9975782882518416e+01  9.9937981508379025e+01  9.9948466930021482e+01  9.9840641445443310e+01  9.9990296558246570e+01  1.0005578857684945e+02  9.9999205617232136e+01  1.0004748245842859e+02  1.0001917497781604e+02  1.0003114496210750e+02  1.0001272354008360e+02  1.0001813455460210e+02  9.9829251960817871e+01  9.9915654418728437e+01  9.9959636695043343e+01  9.9962310747467498e+01  9.9978166673560636e+01  1.0006052413934472e+02  9.9991293084585749e+01  4.0000000000006850e+01  1.0588537274883625e+02  6.4294543013944619e+01  9.9646159561912881e+01  1.0020071959607723e+02  1.0010136728705153e+02  9.0005622590039309e+01  1.0000795521726199e+02  1.0000265840354726e+02  9.1329192439575053e+01  1.0004128184958563e+02  1.0000857805087517e+02  1.0001677120755467e+02  9.9994560718748190e+01  9.9698421825173696e+01  1.0001546442683717e+02  9.9987176516842439e+01  1.0002047450959873e+02  9.9994932113510842e+01  1.0000912736882538e+02  1.0000169443682837e+02  1.0001687876089058e+02  7.2252234103517182e+01  9.9997141056185441e+01  4.0000000000006850e+01  4.0000000000006850e+01  4.0000000000006850e+01  6.7029394112156368e+01  9.9961912040866125e+01  9.9982341816078701e+01  9.9994535286119202e+01  9.9923394355920067e+01  9.7143849805100700e+01  9.9984050669236254e+01  1.0001197212079464e+02  9.9997904848852968e+01  1.0005359941022995e+02  9.2795917584035791e+01  7.6209164754412484e+01  6.5579054025109386e+01  9.9992718509605396e+01  7.8823357652394932e+01  4.0000000000006850e+01  4.0000000000006850e+01  4.0000000000006850e+01  4.0000000000006850e+01  4.0000000000006850e+01  4.0000000000006850e+01  1.0009466743023459e+02  9.9989410404286531e+01  1.0004730953316124e+02  9.8715240692905738e+01  9.7668798228844054e+01  1.0002945569997995e+02  9.9966323334572834e+01  1.0000477408567546e+02  9.9919658921328605e+01  9.9923621791125584e+01  1.0003558308858166e+02  9.9946296134493736e+01  4.0000000000006850e+01  8.6213843979989193e+01  9.9969800674861645e+01  1.0001341826968901e+02  1.0017321688959214e+02  9.8676882958196614e+01  9.9971522534038897e+01  9.9987140586259301e+01  9.9965720620719026e+01  9.9599246540451020e+01  9.9990037176415399e+01  1.0003363656969357e+02  1.0002837604546258e+02  8.9980090834543418e+01  1.0000353724263321e+02  9.8811339065866775e+01  9.8192867272025211e+01  4.0000000000006850e+01  9.6354419011321284e+01  1.0005086617787715e+02  1.0005904530881415e+02  1.0025822104164826e+02  9.9989888584642614e+01  9.9864227249724962e+01  4.0000000000006850e+01  6.6025861551193017e+01  6.5380291376043445e+01  9.8004484927057518e+01  8.9016936883109921e+01  9.9991380186664173e+01  9.9957209141648320e+01  1.0000783362305162e+02  1.0000771181971017e+02  1.0000283463141568e+02  9.9977823931476124e+01  1.0015234269138105e+02  1.0004620639432937e+02  9.9954225992455676e+01  9.7768026812641807e+01  4.0000000000006850e+01  9.9794856758355081e+01  9.7852438801294397e+01  9.6506472677084702e+01  9.9921641954343499e+01  9.9966623646288951e+01  7.5637590738064731e+01  8.5270758273986374e+01  9.9967241357100136e+01  9.9960811821408228e+01  1.0007835327022197e+02  9.9969065207065299e+01  9.9949047517598046e+01  9.9924773840921702e+01  9.9925162326778150e+01  9.9992905641290207e+01  9.9985278196974818e+01  9.9914167838687248e+01  8.8334468004769889e+01  6.1847196723830962e+01  9.9937178612607852e+01  9.9971487190581598e+01  1.0000312795164281e+02  9.0609413349847429e+01  4.0000000000006850e+01  4.0000000000006850e+01  4.0000000000006850e+01  9.9995564987539467e+01  9.9944218379635885e+01  9.9899137499412461e+01  1.0001152349850965e+02  9.9960778653002706e+01  1.0003053399312540e+02  1.0001080528996084e+02  9.9972618538598297e+01  1.0001605164735977e+02  1.0004289549235976e+02  1.0002624211210957e+02  9.9928374138635505e+01  1.0058796537633687e+02  9.9978451140085383e+01  1.0000438516552366e+02  8.8898818661044558e+01  8.9534418751545090e+01  1.0000876554994977e+02  1.0002207556988965e+02  9.9950850758424352e+01  9.9974940490877486e+01  1.0011745883733781e+02  9.9969759348126900e+01  9.8863556791373313e+01  1.0002525290754633e+02  9.9805818659088573e+01  9.9977312798224162e+01  1.0007188523776109e+02  9.9993587577907434e+01  1.0000990452760981e+02  9.9995956081573979e+01  1.0002472918316201e+02  9.9977632247432382e+01  9.9835956200594694e+01  1.0003732793706456e+02  1.0000970091307623e+02  9.9997878080161030e+01  1.0002182479762237e+02  1.0001848788329539e+02  1.0003792979768201e+02  1.0004940711714812e+02  9.7282124346178122e+01  7.4084625274563635e+01  9.9720114142893095e+01  9.9942273234778256e+01  9.8256484173105207e+01  9.8326252677956873e+01  9.8894921060409203e+01  9.3607375901873496e+01  1.0004367102044633e+02  9.9969085974613975e+01  9.9997191348422149e+01  9.9976680969292516e+01  1.0003075438993822e+02  9.5058604698206679e+01  4.0000000000006850e+01  9.9977323977370304e+01  1.0000277824919294e+02  9.9279799583611890e+01  9.8723274330066545e+01  9.3540428881551364e+01  9.8786170930672441e+01  9.9975753717496431e+01  9.4045830043858913e+01  1.0001266250849901e+02  9.9966042703797754e+01  9.9990711684753961e+01  9.9987912556041053e+01  1.0000153604605589e+02  9.9985558654497027e+01  9.9993658813473630e+01  9.9978274208895812e+01  4.0000000000006850e+01  9.7406765635416605e+01  6.2624074866146344e+01  9.9971064635141957e+01  9.9897317985636462e+01  1.0008419320006989e+02  8.4917232587328954e+01  6.4389666709365230e+01  6.9224863304914564e+01  1.0001919355788822e+02  9.9961772706853864e+01  9.9962971866979032e+01  1.0004092215504461e+02  1.0001248056517147e+02  1.0000873015035273e+02  1.0000085250419058e+02  1.0000240653613695e+02  9.8502459257924130e+01  9.6771622422404960e+01  9.8757429368868515e+01  1.0002458442897998e+02  1.0002346039891157e+02  1.0013210686693594e+02  1.0002620091729811e+02  1.0006620157431138e+02  9.4685426863398632e+01  9.9164987711156257e+01  9.2635157362322275e+01  9.1455741477372143e+01  9.2263135783283516e+01  7.7491482982229343e+01  1.0004371515341523e+02  9.9970294271443649e+01  1.0009987336640648e+02  1.0001426990253260e+02  9.9987064231876573e+01  9.9920718471143161e+01  9.9986905732454119e+01  1.0000689913013609e+02  1.0001500779563681e+02  9.9994807416486580e+01  9.7084106869338058e+01  1.0008293013855554e+02  1.0017532632510810e+02  9.9999405935791003e+01  1.0149555619032766e+02  9.4950573368657459e+01  4.0000000000006850e+01  1.0001187399062626e+02  9.9977104987582450e+01  1.0004059412600978e+02  4.0000000000006850e+01  1.0002892447794017e+02  9.8152381399199882e+01  9.1333139697503256e+01  9.6087367276499918e+01  9.2513200177331314e+01  1.0000801395358947e+02  9.9992726653483757e+01  9.9949839916235447e+01  9.9745185198939538e+01  9.9975833673421789e+01  1.0010648745094240e+02  1.0000989433958506e+02  9.9913407363663552e+01  9.9781250716471703e+01  9.9987355559300042e+01  9.9979316392708554e+01  1.0002856691090007e+02  9.9851085689911542e+01  4.0000000000006850e+01  4.0000000000006850e+01  9.8479610140677266e+01  4.0000000000006850e+01  1.0000788682846084e+02  9.9933130175988325e+01  1.0002235153718087e+02  1.0008803710753445e+02  1.0003551639573932e+02  9.9658302360680096e+01  9.8820917092783787e+01  1.0001338644177585e+02  9.4974561937994082e+01  8.2551314942574422e+01  9.9892362775535830e+01  4.0000000000006850e+01  9.9919874368101006e+01  1.0005320738186273e+02  9.9962549086083087e+01  9.9844649109111401e+01  9.9887424606145018e+01  9.9910569039799938e+01  9.9939836317734404e+01  9.9996393693396485e+01  9.9938660076548842e+01  1.0003237363459681e+02  9.9967767225756589e+01  1.0002233628827152e+02  9.3560025193140717e+01  9.9966399240017481e+01  9.2189957746323657e+01  9.6545048009210646e+01  9.9990333843525690e+01  1.0001143791910862e+02  9.9824381155522332e+01  9.9496853200922331e+01  1.0232845922116198e+02  9.9918789349237485e+01  1.0004379558239069e+02  9.8228552435931107e+01  9.9949723774396247e+01  1.0002087662995896e+02  9.6356556602212549e+01  8.6104991684927015e+01  4.0000000000006850e+01  9.9851863635906170e+01  1.0011441148734706e+02  9.9961947346906697e+01  9.9939897699461099e+01  9.9993482407290557e+01  9.9956079754606705e+01  9.6546052198844649e+01  9.9899910153082416e+01  9.9988370276725078e+01  9.9983707673299946e+01  1.0003067174380446e+02  1.0001005776317675e+02  1.0030403075239013e+02  9.9944146162658541e+01  1.0003767970183257e+02  9.9924474589065326e+01  9.9961566555250570e+01  1.0005947690841219e+02  1.0016872418504995e+02  9.9958697293151204e+01  9.9887783856092256e+01  9.8318540500124854e+01  9.8059699344300611e+01  9.1562934676486734e+01  9.8185818768465552e+01  9.7643402163741271e+01  9.4948921426856998e+01  9.5144691108118323e+01  9.9690089962178050e+01  9.9862813935829351e+01  9.9713013839765878e+01  9.9964793247027202e+01  1.0002005843349743e+02  1.0003864227681538e+02  1.0001805761134499e+02  1.0000968903502978e+02  9.9969532532673696e+01  1.0001845232911646e+02  9.9968733985875843e