<?xml version="1.0"?>
<VTKFile type="UnstructuredGrid"  version="0.1"  >
<UnstructuredGrid>
<Piece  NumberOfPoints="17503" NumberOfCells="83289">
<Points>
<DataArray  type="Float64"  NumberOfComponents="3"  format="ascii">34.9128303527832 7.159039974212646 27.23946952819824  34.49192293452275 6.940896280298995 26.82828335359084  34.75876863764775 7.262646205912398 26.87687782838332  35.02147483825684 6.848018407821655 26.84287929534912  34.6459846496582 6.837290048599243 27.19087505340576  34.3791389465332 6.51554012298584 27.14228057861328  34.75462913513184 6.526268482208252 26.79428482055664  35.13011932373047 6.536996841430664 26.4462890625  34.86741312312139 6.951624639521407 26.4802875955342  34.60470692251231 7.36625243761215 26.5142861285684  27.11422573886168 10.71728622047777 29.33648317416864  27.05949294659212 10.36302012525545 28.14681140610583  26.68010267749833 10.3605440501031 28.80292240210991  26.84346812513986 10.86132900489788 29.03957663668459  27.49361600795548 10.71976229563012 28.68037217816456  26.57271051141805 11.00537178931799 28.74267009920055  26.40934506377651 10.50458683452321 28.50601586462586  27.22285839423366 10.86380508005023 28.38346564068051  27.87300627704928 10.72223837078246 28.02426118216048  26.24597961613497 10.00380187972843 28.26936163005118  31.81641006469727 11.10233974456787 25.7568302154541  32.55637927468934 10.78682398583877 25.86280163597697  32.10272021707215 10.66335892465102 25.96026142906779  32.28424072265625 11.01684999465942 26.05300998687744  32.27006912231445 11.22580480575562 25.65937042236328  32.75207138061523 10.93136024475098 26.34918975830078  32.57055087503114 10.57786917474258 26.25644120049113  32.73789978027344 11.14031505584717 25.95555019378662  32.72372817993164 11.34926986694336 25.56191062927246  32.38903036944704 10.22437810473418 26.16369264268148  35.6425895690918 7.805421829223633 27.36277008056641  35.06239321551325 7.80905150255635 26.82638832013209  35.60615486656178 7.723825674375275 26.86239043559642  35.58133453880299 8.028636198362092 27.25063029613109  35.66740989685059 7.500611305236816 26.97453022003174  35.12364824580205 7.585837133417892 26.9385281045674  35.69223022460938 7.19580078125 26.58629035949707  35.14846857356084 7.281026609431075 26.55028824403274  35.52007950851419 8.251850567500551 27.13849051169577  30.70338886822507 5.734390739998017 27.18571970880863  30.48244290384224 5.983147627452405 26.48604265204606  30.83857308200381 5.743156557979278 26.4443977981592  30.43062184335249 5.393422671439987 26.83838210952168  30.15785481847991 5.052454602881958 26.49104451023474  30.20967587896966 5.642179558894377 26.13870505275911  30.56580605713123 5.402188489421249 26.09706019887226  30.97375729578255 5.75192237596054 25.70307588750977  30.61762711762098 5.991913445433667 25.74472074139663  30.26149693945942 6.231904514906795 25.78636559528348  34.68006896972656 13.06538009643555 24.51547050476074  35.02217416302906 12.695291864861 24.82330152412476  34.70058117431049 12.45944166371346 24.47649201061954  35.09169960021973 12.87697982788086 24.40284061431885  35.50333023071289 12.68857955932617 24.29021072387695  35.43380479352223 12.50689159630631 24.71067163368286  35.11221180480365 12.27104139515877 24.36386212017764  34.72109337889442 11.85350323099136 24.43751351647833  35.04268636761299 12.08935343213891 24.78432302998355  35.36427935633157 12.32520363328645 25.13113254348877  25.1914005279541 15.8389196395874 28.1862907409668  25.20256331281429 15.19031475360475 27.87743871053242  24.96082880811459 15.51513479526125 27.84347932179951  25.16947950297526 15.16548437080682 28.34242436815429  25.43313503265381 15.51409959793091 28.22025012969971  25.67486953735352 15.18927955627441 28.25420951843262  24.93890778313575 14.84169952648066 27.99961294898699  25.41121400767497 14.84066432915033 28.3763837568872  25.14755847799642 14.49204910202624 28.49855799534178  24.73025708827507 15.19134995093509 27.50066790263221  25.67308044433594 13.08121013641357 23.76271057128906  26.31536400540517 12.87730038527578 23.95366287452183  26.10636437503226 13.01242071316888 23.67445246130019  26.01272500125297 13.30268055127312 23.85113779455214  25.76671981811523 12.79095029830933 23.58602523803711  25.97571944848815 12.65582997041623 23.86523565125875  25.86035919189453 12.50069046020508 23.40933990478516  26.06935882226744 12.36557013231198 23.68855031800679  26.27835845264035 12.23044980441888 23.96776073122843  26.35236955816999 13.52415096613267 23.93956501781522  36.39913940429688 7.861127853393555 26.6499195098877  36.58277936440746 8.435882220987274 26.25908452128158  36.38494916421214 8.396582256082489 26.59608918284164  36.76799964904785 8.215154647827148 26.46547985076904  36.59696960449219 7.90042781829834 26.31291484832764  37.13685989379883 8.569181442260742 26.28104019165039  36.75380940896312 8.750609050516083 26.41164952372299  36.96582984924316 8.254454612731934 26.12847518920898  36.7947998046875 7.939727783203125 25.97591018676758  36.37075892412741 8.932036658771425 26.54225885579558  24.61955393501369 5.729207607017445 26.26435319543223  25.03000076695918 5.778005280256678 25.5221748070475  25.30244275765089 6.008806441961952 25.93490467669846  24.72390859217967 6.172952737593507 25.57023480407368  24.82826324934565 6.616697868169569 24.87611641271513  25.13435542412516 6.22175041083274 24.82805641568895  25.40679741481687 6.452551572538015 25.24078628533991  25.98533158028808 6.28840527690646 25.60545615796469  25.71288958959638 6.057604115201185 25.19272628831373  25.44044759890467 5.82680295349591 24.77999641866277  26.55034593237134 9.555521565422465 24.36133021681851  25.89498768705158 9.577714845361744 24.58399676912708  26.20494082306364 9.067679008584765 25.01764781427484  25.96649316331419 8.839903932149888 24.28449942212226  25.38264039425704 8.124286298877308 24.207668627426  25.31113491799442 8.862097212089164 24.50716597443083  25.62108805400649 8.352061375312186 24.94081701957858  25.85953571375595 8.579836451747065 25.67396541173117  25.54958257774388 9.089872288524043 25.24031436658341  25.23962944173181 9.599908125301022 24.80666332143565  23.1141300201416 11.18826007843018 28.74068069458008  23.63085872872204 11.83932451913343 28.46861761264511  23.21575597255941 11.67458158388572 28.74067600503535  23.46698474884033 11.36278009414673 28.94005012512207  23.52923277630423 11.35300301367789 28.46862230218984  23.81983947753906 11.53730010986328 29.13941955566406  23.56861070125814 11.84910159960227 28.94004543557735  23.88208750500296 11.52752302939444 28.66799173273183  23.94433553246686 11.5177459489256 28.19656390979959  23.31738192497723 12.16090308934126 28.74067131549063  28.37132172231807 1.815638967417659 28.01688162019653  27.32301588365006 2.305717163355114 27.94828615791764  27.8959598654805 1.722647407529904 27.69712106625475  27.8316883905181 1.741671620310416 28.25669647713755  27.86264921545003 2.379684510462358 27.70847130097663  27.35397670858199 2.943730053507057 27.40006098175672  27.38728735861246 2.286692950574603 27.38871074703485  27.29205505871813 1.667704273203172 28.49651133407856  27.35632653368053 1.64868006042266 27.93693592319577  27.42059800864293 1.629655847642148 27.37736051231298  32.78384017944336 13.59123039245605 22.52379035949707  32.50426651477517 13.50993782154319 22.03124367185474  32.64509750842751 13.31064802280662 22.43131386228443  32.38428676592815 13.37379316670216 22.21648092963215  32.64300918579102 13.79052019119263 22.12372016906738  32.50217819213867 13.9898099899292 21.7236499786377  32.24345577227581 13.57308296543874 21.81641073920246  31.98473335241294 13.15635594094828 21.90917149976723  32.2455440949123 13.09321079705273 22.12400443241951  32.50635483741166 13.03006565315718 22.33883736507179  32.15467071533203 2.395050048828125 30.3059196472168  31.74723929236434 2.189142163860032 29.64099071543671  32.0042336299059 1.869768170213432 29.98103917830182  31.7446244074938 2.191103187894554 30.15025914900495  32.15728560020258 2.393089024793603 29.79665121364856  32.41689482261469 2.071754007112481 29.62743124294543  32.41427993774414 2.073715031147003 30.13669967651367  32.67388916015625 1.752380013465881 29.96747970581055  32.15990048507312 2.39112800075908 29.28738278008032  31.33457809965556 1.987156326960982 29.99459865079309  34.09929999453565 6.99294867487819 23.80117912218894  33.80424064614112 6.489302634408635 23.7377633735673  34.11688430835536 6.399985914970443 24.3346859762525  33.4460817296467 6.68927805138369 24.09175614308069  32.79286346475775 6.385607427889191 24.38233316397244  33.15102238125218 6.185632010914135 24.02834039445906  33.46366604346641 6.096315291475944 24.62526299714425  34.13446862217507 5.807023155062696 24.86819283031606  33.82182495996084 5.896339874500889 24.27127022763086  33.50918129774659 5.985656593939081 23.67434762494567  21.62544059753418 13.78382968902588 29.83383941650391  21.97511378646615 13.46059963240391 29.4499314758284  22.22849834759801 13.98128870310502 29.47361405537749  22.06817054748535 13.64402961730957 29.93408966064453  22.51090049743652 13.50422954559326 30.03433990478516  22.41784373641732 13.3207995606876 29.55018171996903  22.67122829754918 13.84148863138871 29.57386429951811  22.83155609766185 14.17874771718415 29.11338869425107  22.57817153652999 13.65805864648305 29.08970611470199  22.32478697539813 13.13736957578194 29.0660235351529  31.91970062255859 1.372066974639893 31.30632972717285  31.8002347946167 0.8120329976081848 31.21179008483887  31.58693865388889 1.203358218609794 31.15345331438807  31.9229154586792 1.024915486574173 31.06337451934814  31.79701995849609 1.159184485673904 31.45474529266357  31.67433929443359 0.9463019967079163 31.6031608581543  31.46425798982639 0.9904757296438057 31.30186887987879  31.9261302947998 0.6777639985084534 30.82041931152344  31.5901534900095 0.8562067305440743 30.91049810656336  31.25417668521919 1.034649462579695 31.000576
[...]
<PointData  Scalars="c_HbCO2"> 
<DataArray  type="Float64"  Name="c_HbCO2"  format="ascii">-2.7982666080496527e-67  9.2483319945939371e-68  -3.7057272572549079e-67  -1.6285369821230921e-68  -4.9289609717879191e-67  -1.0306240174884051e-66  1.0834731948822145e-66  1.2315462090067974e-67  1.6689802432465658e-67  1.8761485690297450e-67  -3.8157588239091497e-61  -4.9927059977825434e-60  -3.2588107790849406e-61  3.8385180457887063e-62  -4.5674713425663552e-63  -5.3718751772206309e-61  -2.3967993477466519e-60  5.1860478101727366e-61  -2.4668339983260947e-60  4.6384257309027704e-60  1.3877085162473405e-64  -1.7077231577529662e-65  -1.5221350067926793e-65  -1.2074913436773549e-66  -2.2843781497886826e-65  5.7010775941030034e-66  -9.8136049308633619e-66  -8.1985315383826600e-66  7.0200024517147456e-67  7.7645532654961022e-65  3.4319007737501463e-68  -3.8840665719740285e-67  7.9291056049301795e-68  5.0119665482346272e-68  6.0463467668253152e-68  9.5115723150754433e-68  -5.3076545921076840e-68  1.5205774090718817e-67  -8.1778276589498275e-68  -1.8929750167645921e-62  5.4954914107022587e-62  -3.9595430590020464e-62  1.4322494572193745e-61  -2.7492410786798537e-62  -2.6628338509838060e-62  -4.8557670413398556e-62  -1.0454252972790462e-62  -5.1591222160775849e-62  4.6436566772872494e-62  -6.0778568064413128e-70  -1.5928834183821934e-70  -3.2475179919711986e-70  -4.4202358744196463e-70  -1.9620897553746066e-70  -1.4757684419091571e-70  1.9175315765836676e-70  5.0587331686300945e-69  5.6819497425781629e-70  -1.9162289498302441e-69  -4.4607999456778572e-61  4.9897174727648409e-62  -1.7462223053113589e-62  -5.3479682321212628e-62  6.0750121005626476e-62  2.5044503802875757e-62  9.5228988067175840e-62  2.6955296320343850e-62  -2.5688226484403087e-62  1.9713673841381011e-61  -1.0920542125941790e-62  2.2421365270550904e-62  -1.0821623495833375e-63  6.9106926383998670e-63  2.1108726109789240e-62  4.3020684138610151e-62  2.2746773478048351e-62  4.3918389150577238e-62  -3.6674567559022734e-62  2.6740504878486535e-63  5.3045342617892724e-70  -8.7835688665662235e-69  -1.4589371203783213e-69  -7.1914115555419052e-69  -5.7810697767418157e-69  1.4099827454661185e-69  -5.4628418040942387e-69  -2.5015053683999660e-70  -3.8462943766216948e-69  3.4875449918622429e-68  7.5861343897166729e-55  4.2383161290946755e-55  7.3622234014779298e-56  1.0187203894035751e-54  4.2110894572674499e-55  6.9553071866274626e-56  -1.6979655077338670e-57  -2.1289226767406732e-57  -8.0788661625561903e-56  5.5830233131542372e-56  -1.5274186059872506e-59  1.6837711405720007e-58  4.2527326933993512e-58  -2.8757153612714395e-57  -5.7281734739084444e-57  -1.6910838048056282e-56  -1.9912836708176467e-56  1.1900507571855350e-57  -6.1402375737982703e-57  9.6518662231092203e-59  -8.6788843403029738e-59  -2.4901514697729036e-59  -2.0095001980774959e-59  -1.3860549765352408e-59  1.5814896700670856e-59  -1.4114120417353071e-59  -5.3978227606185960e-60  -1.4037136545620506e-59  7.3303080167384693e-60  -7.2699525354570208e-60  6.2059346417521446e-61  -1.4666435491492086e-59  2.5790867748644095e-60  1.7591026428720767e-60  -3.1995188791260323e-60  2.9044829876849916e-59  -7.7034905965858521e-60  2.7707007284242319e-60  1.7992578041386678e-60  5.3483589098570854e-61  6.2862235026049352e-69  1.0220602037282496e-68  9.5033349312827876e-69  2.5080318218073157e-68  -8.9685842367164259e-70  -3.5827847502907888e-69  1.7969731454770264e-68  -7.8387179877457980e-68  3.1483950932876587e-68  -2.6331380349427218e-68  9.9349524561699870e-66  2.3347122514965542e-64  7.7902667411767104e-65  1.6556111432953117e-64  1.1233983983653395e-64  6.6927490136264393e-66  -9.6199511863820026e-66  -1.0027719567842258e-65  -1.0530341367319709e-64  -4.4869851366410177e-64  -1.0214976661856072e-66  3.4565001470521906e-67  -8.4593700984326500e-67  -4.2500261478746573e-66  -1.3351001482802348e-66  -1.5740994262605850e-66  7.1134430426366366e-68  -2.2044215024563089e-66  2.4036218319600359e-67  6.4922063117159432e-68  2.6878359411671442e-59  -1.3101461530066194e-59  1.8864012136924845e-59  -7.1640246959019517e-60  -1.1941583151001248e-60  3.4157444083693570e-61  -1.9106713721238400e-60  -2.3875151594254246e-59  -1.5979832919033798e-60  -5.5242644774780313e-60  -3.4761973300108934e-66  1.2893496117702314e-66  -1.1923756355589063e-67  3.4563134966504466e-66  1.0663900591194358e-66  -1.2449302991539243e-68  3.5204418513838277e-67  -2.2111487568123462e-66  -8.2482471804165922e-66  -5.5764763521873931e-66  5.6875525943133900e-68  -1.2511118422670258e-66  -1.6457795532461788e-66  -2.8711968194002188e-67  5.5181484762621493e-66  -1.4209032258772084e-66  -1.7582195185691131e-66  9.1708132710846030e-65  -6.6347426868090846e-66  -5.1543518559294345e-67  -2.3033509237384750e-63  -7.8059847192686499e-63  3.7635639645885189e-63  -7.1309223387143844e-63  -4.3796587692827280e-63  2.3899200548305567e-63  -1.2514211393639802e-62  -3.8247798549885901e-63  -2.7015425229771841e-63  1.1695689019354287e-62  -1.3418129145667110e-59  -9.4346156973243899e-60  -3.9241394466536793e-59  -6.7929963003449044e-60  -4.6965882900627077e-60  -2.1914184236827881e-60  -1.4065932386636613e-59  1.1456495091693471e-60  -2.8214935997625772e-59  9.9077547358165353e-62  -5.7259837221160959e-71  -2.1257859457724749e-70  -7.7317823282002655e-71  -1.8823534233197467e-70  -5.2322856271340622e-71  -1.3066263843442937e-70  -2.1270919415016964e-71  -1.4857372127122844e-72  1.0425306516554773e-70  3.9496646826432181e-70  1.0214936166913630e-54  9.8898581326621571e-55  -7.8716670984349356e-56  6.9125568694556022e-56  1.4473740180496034e-54  -3.0947188684421877e-54  9.1790621306870115e-55  1.3117301239822026e-55  -6.8264714148187825e-56  6.1031724630371846e-56  -3.1306135735139077e-63  -1.0970908122714574e-62  1.0802602702429852e-63  -3.8573674676399329e-63  -7.2891462337577887e-63  8.5606307185244917e-62  8.2691308475004180e-63  -2.3542532392683586e-63  -5.4820598533397835e-63  -4.7017924575148324e-63  -4.7939931511800764e-59  -1.1631277742275903e-59  -1.3041932987584679e-58  -9.4443644839047047e-60  4.0417684087685197e-58  1.0605574828220753e-57  1.5588244149886812e-57  2.6520780665375813e-58  -7.2617665168992239e-59  5.3076440129421400e-58  1.0838842753303963e-54  5.1614744572583174e-55  1.9697008772956012e-54  -3.8983202170140029e-54  3.4160832008308826e-55  1.1163754058108943e-54  5.1947507922691815e-55  1.9493329205664291e-55  1.3235347038953050e-54  1.1478443840369276e-61  -4.7510520281813204e-60  1.0676113926488182e-60  -1.2792421270062582e-59  -3.3765228461415692e-60  -1.6321049686277953e-59  -1.6498356094791312e-59  1.0273273677514816e-59  -1.1953059459243243e-59  3.6400832186644735e-63  9.7937654676668938e-63  3.7334022180354750e-63  -7.6001704182199504e-63  -3.4263687180309655e-63  -1.7038342239629766e-63  2.6460167479598535e-62  1.1549674361652220e-61  -3.5915389357401575e-62  1.4536273899213532e-61  -5.0840695415280161e-64  1.2679900081607540e-63  3.7524267520723889e-63  3.0141986062043651e-63  1.0409050201884159e-63  -2.5936811519449099e-64  4.3994576586397443e-66  -1.0787904395181712e-63  3.8273445067153112e-63  -1.9928359869639421e-63  5.3759477895402524e-65  -1.1215314779932048e-65  -8.0797463988515777e-66  -1.1207615430441952e-66  -1.2402593956796536e-65  2.2340483409906579e-65  -1.3125519951508882e-66  4.4937048172273613e-66  6.4755865461853421e-66  9.9474991872538449e-65  1.1987721781268260e-72  -2.3825836539874770e-73  1.6447196129116959e-73  1.3074320723729349e-72  -1.3186525326135814e-73  -4.3322903283255021e-74  8.9843368746750517e-73  -8.6258033319217255e-74  3.5063583402687848e-72  1.2562197820427368e-72  2.8238010937610357e-66  4.8564723511761877e-67  -2.3730812574804167e-67  1.7366917231458357e-67  -3.7838627091200456e-67  -2.1412692843386515e-66  2.9042301608475639e-66  2.5231064828533037e-67  7.1178742697771127e-67  3.9143453586618346e-68  1.2043747270912404e-63  -3.0212565773697476e-63  -2.2201028859286811e-63  -2.2340428740935545e-64  3.4220499522004899e-62  -5.8399050372622149e-63  -3.1732356730891815e-63  -2.2090581665875200e-64  -1.3283305607236615e-63  7.6701442935255551e-64  -1.6642680149187294e-70  5.0178737576305856e-70  2.4274705315587189e-70  -4.0077664380623795e-70  -2.9959409162051110e-70  -5.2098083982719762e-70  -3.8947699650035385e-71  6.1888926864536548e-69  2.7237124978614888e-69  6.5028182646713529e-70  -1.9053730443592800e-62  2.5114196592586000e-61  2.6768125588308572e-61  1.0801030565259346e-61  -2.2983794354788697e-62  -7.5392427123588251e-63  -7.1043868468544649e-63  -6.2123976141858669e-63  4.3625284850451293e-61  -5.6690031978772065e-63  -1.4479280662704769e-56  -2.6953098894871024e-56  -2.1388783774611900e-56  -1.3521412163217482e-56  -1.0031830910123154e-56  -3.0620084933287028e-56  -5.2413766315668518e-56  7.6451237024945676e-56  -2.0688366122911666e-56  -3.6919320064291466e-64  -2.5704875300272370e-65  -3.8339725944655856e-65  5.8035531440836657e-66  -2.5048078931438848e-65  -3.2047389088024040e-66  3.1315063033950712e-66  -8.1961534286480196e-66  3.1733190876010940e-66  -5.5461045412754979e-66  -2.2694544244532075e-56  -5.2062711434520042e-58  -2.4214345187112795e-56  2.3572723042602988e-57  3.6236235047487135e-58  3.0367468294660940e-57  2.2381123678204000e-57  4.0216968377981170e-57  -6.8968197476049968e-57  -6.9171726700870739e-57  4.6866976689111090e-59  1.3928285765161720e-58  3.5652363832500806e-60  6.5086456702919950e-60  -5.4794047818633340e-60  1.7759356624335491e-58  1.7191256080422337e-59  3.4203000989419352e-59  1.1226920845345559e-59  3.2758794608699950e-59  -4.8305678668118192e-69  -5.2758980561982275e-68  -8.6154738825770311e-69  -1.5721643359464340e-67  -3.5777711613198895e-69  3.7103673796684738e-68  -6.4819087627951994e-69  -1.3943163782230494e-68  -1.0783056471600131e-67  -8.3479156697033479e-69  3.8318868610650953e-59  7.2411680978350269e-59  5.6539785201247203e-59  -1.0757920351788316e-57  2.2114925181799822e-58  1.1968514964964892e-57  2.2027559782885013e-57  -8.6258623559633832e-59  1.0187669144302297e-58  3.5926150786712900e-55  3.8513388825217198e-54  -5.1639548196709211e-54  3.4537766416019157e-54  1.8880344092146817e-54  2.0888932933862227e-54  5.3577235134879171e-54  -3.8159217355007257e-53  -4.9521350435765712e-55  -3.7736377014200391e-55  -1.4042173928209740e-69  -6.3223464419250610e-69  2.0931525608365954e-68  -1.1509538062337782e-68  -5.3494970835321046e-69  -3.6680996940103302e-69  9.4197315061092690e-69  4.0713039278980494e-68  1.2159725127074170e-67  -1.3173551915610108e-69  -1.3039358260702444e-65  -2.4025000382819960e-64  -3.3439291505919857e-64  4.7055985039724886e-66  2.1048146467982240e-65  -2.3377735649748787e-65  2.3570037310076974e-65  -1.1050044888244865e-64  -2.1550928896223809e-64  -6.4217392043738438e-65  6.4565384256006424e-62  -1.6049250691788902e-62  -3.9670573527033521e-62  -5.1780509743451743e-62  -2.1036707483686581e-62  -1.4244025506688948e-62  -3.6925685937919098e-63  3.9755089497052475e-62  -3.0028712231050774e-62  -2.7330151614427858e-63  5.4743805509409204e-67  -2.0693344762573048e-66  -4.0871257445095568e-66  2.4027165402996064e-67  -7.0016605459845562e-68  3.6430179857812179e-66  4.4796411680588263e-68  2.9085306742765821e-67  1.2426227317041967e-68  -6.0548499017680726e-67  3.9843405802889545e-65  -1.8958013938107237e-65  8.7542779492292004e-65  1.2285125662402565e-65  3.3313163396918274e-65  3.5573274524155970e-67  -2.5855480515782574e-65  -2.0724516495546676e-65  -8.1555640381395491e-66  7.4251412941488402e-65  -9.3349245322834347e-60  -3.0087978576560450e-61  -6.1229099927539399e-60  1.4187919229068701e-60  5.4296800236985188e-62  1.0354191183763276e-60  -1.6035599698169034e-60  -2.9589568521290539e-54  9.9931436735050973e-55  3.3686085818112116e-54  2.0165003162895656e-54  3.6594121596538215e-55  -9.3804993721109448e-58  3.3708701914888699e-54  -4.5997037757826408e-54  3.9225684700366100e-54  3.9260226711862958e-54  -4.2556647343880566e-53  -2.6209233818763765e-53  -1.0161469788185079e-54  -2.7041819980322742e-54  1.7719765472650979e-54  3.8187222291070731e-54  2.5988240656017398e-54  2.4360745310899090e-55  5.7619906709798800e-54  -1.3523970964557523e-53  -5.8498301048615668e-64  7.0105174481971293e-64  9.3083296704574008e-64  4.8276006911689504e-64  1.4469581281685759e-63  -9.2547753257121579e-63  4.6981838762115384e-64  -1.5503969253278693e-62  -2.1379895705270013e-64  1.2155977323547394e-63  3.7934142301837239e-61  -4.3337822629734121e-60  3.1071934883108730e-61  8.1565712142794884e-61  8.6536813988256857e-61  3.9755226897444851e-61  2.7523683131118538e-58  -2.1590164928204612e-60  8.2999905690525317e-59  -1.2892368025792877e-58  -7.8046266327442426e-59  1.2798225316241765e-58  2.3488232380033486e-58  -4.8398842502447868e-59  -2.9125519504165103e-59  6.5196963602236541e-55  7.8367543070754235e-55  9.5426532230835558e-55  3.1923225990671297e-54  2.8298693118255831e-55  5.5842997868836036e-55  7.5850015660919569e-56  3.6269569609093080e-57  2.9071986185825706e-55  -5.5216658088343221e-53  -8.7375523830753403e-53  -4.0251810734510112e-53  -1.2658771348937250e-53  -4.7143064461845083e-54  -8.3095077328947058e-54  3.8878979911480324e-53  6.9878255158916110e-63  -3.8633556938898679e-64  1.0605370311688024e-62  -3.8497775204585157e-64  1.5465939816533892e-55  1.8144644880787473e-55  -8.4576487163697122e-56  -2.0087964027322630e-55  -2.1351324313114122e-56  -1.0951397270766380e-55  -3.9636532890218935e-56  -3.9279232126440801e-56  -5.0444380977628794e-56  -1.4010020291898806e-55  3.0603674982594705e-65  -2.4559355503146883e-65  -3.4024331565027325e-65  3.3892078759826438e-65  5.3241304915408786e-66  1.6923384999473045e-65  2.9194764399950196e-65  2.9719370286766305e-66  6.7920459171906211e-66  9.0491812469227782e-68  -8.9819372216154778e-60  1.9173366978722052e-58  -1.3105049334406099e-59  6.8656792126216934e-59  -2.5689214571236687e-59  -7.3027635580106846e-60  7.0257351782179175e-60  -3.5313786776881043e-59  1.2846149278964072e-59  2.8245039238392868e-58  3.7248840191088286e-61  5.5092072146681087e-61  2.0603663089463881e-61  7.8886716052570485e-61  9.8447699806931685e-62  6.3302773273969854e-61  8.7285382474039009e-61  2.2677623110523092e-61  1.7679444829633829e-61  -1.7342240901001742e-62  -2.9144673650237770e-60  -4.7486906778169285e-60  -1.6985575334785453e-59  -5.1736692646902860e-60  -1.5841441488632462e-60  -2.0274583464027776e-61  -2.8707033491311510e-59  -2.1371191209599959e-59  -2.2976581824909979e-59  7.6885480259840931e-59  7.4811745915006132e-70  8.3756575673403577e-70  2.9070261592024948e-71  1.9278530428080369e-69  2.9164173245511335e-70  2.5723131948080925e-70  -6.5635354663885971e-70  -9.3145342104135116e-70  -1.5577976018454208e-69  -9.2722220901920754e-60  -2.1918643613545702e-59  -2.8113758475402546e-59  -1.4642721867695984e-59  -3.5396509482920343e-59  -8.0720620824135975e-60  -1.5595960575186461e-59  -3.3278413693437998e-60  -2.0449244266792791e-59  8.6413104047173099e-60  3.4999375596036865e-58  1.6566787641343301e-58  2.1759972181095429e-58  3.4752262567248942e-58  9.6382468022186213e-58  4.9062693978309230e-58  3.1509753239785061e-59  -3.4139164472081899e-66  -1.6353363455134531e-66  -3.5370422305755569e-66  -1.6132223956874923e-66  -1.0028447565168509e-66  -1.4274335987287119e-66  -8.2585580596463724e-67  1.6118517637175773e-66  -2.0892521433167427e-66  1.1367774646025025e-65  1.2692540844460519e-60  8.3878300121954861e-61  2.9737678714731245e-60  4.0483673655272869e-60  2.1442664886499950e-60  5.4561133604047048e-60  8.8342193857246639e-60  4.4715785229266582e-60  -2.9911153053470644e-61  3.1772067330774702e-60  9.6661473260562629e-63  1.7063272923011680e-61  7.7748484857297292e-63  -3.1395140317117463e-63  -4.4020457170461825e-63  -2.5681393091014823e-62  -1.2338517099687061e-62  -3.4045836276135166e-62  -2.5642301194313579e-61  -6.5565951391395661e-61  -1.3343728901713760e-60  4.7370368857418937e-61  -4.9265338861379164e-61  -8.1915985115221656e-61  -1.8429823011667750e-60  7.9181736780725587e-61  8.2687563912347742e-62  1.4311086913882867e-62  4.6414497694247239e-63  4.0400350959051843e-62  8.8276149244218663e-63  9.4420906019733533e-63  2.4653697092234552e-62  -4.9770644134529882e-62  2.0494162483810412e-62  8.5420687616329632e-63  2.8811495052814208e-63  3.0991012760601780e-65  1.6857971831075891e-65  1.6895852164620266e-66  4.7031732890462009e-65  7.9604862805065699e-66  -3.1792667707269020e-67  1.8364510149383350e-66  -1.8929906625980176e-66  9.3306515087462955e-66  2.4434212097812058e-65  -2.3106478093342053e-57  2.3002196073674038e-58  2.5935534650835137e-57  1.9111425867581579e-57  -3.2640560099606433e-58  2.9200852762474888e-58  5.4882733782421308e-58  1.1887232178380941e-58  2.1038702957035563e-58  4.1013984419281582e-62  8.5882016448927824e-62  4.5258149058991761e-62  -1.4550227962388117e-62  1.2573372958393496e-62  8.9306816863775089e-62  3.4709392413132753e-62  -1.8928536942476579e-62  1.0672690290816421e-61  -3.6473890065013494e-53  -2.7291080236418820e-53  -9.9541808171867703e-53  -2.2433129065215017e-53  -1.7805448301249526e-53  9.4100874625793044e-54  -8.3122809631713515e-54  -2.2778391725729088e-53  -5.0993351992783166e-61  2.7326497403028696e-61  -1.8885854316050419e-60  1.4734383658090394e-61  8.5057931030041745e-62  1.6864733690753753e-62  4.1059597333496303e-62  -1.0683278586234843e-61  2.1161502635103777e-61  2.0060312853027274e-61  -1.2511759268860275e-60  -3.8267839050844108e-61  3.2410968122715495e-61  -8.1408913057872333e-61  2.2662649918749321e-61  1.3896397695556825e-61  2.1112776636124084e-61  1.0081929084167386e-62  -6.9378201084943420e-57  -4.3529543331380585e-57  1.1411973681540518e-57  -2.7680807055403567e-56  2.7757252164208142e-58  -1.0113518594900509e-56  2.0765155659382450e-58  8.4664702993740732e-58  -3.1163943378430234e-58  -1.5741653668880457e-56  -2.1307946544916678e-63  5.6571319199889526e-64  1.5350474511880903e-64  2.4728860483680757e-64  7.5639606619150079e-64  2.9438238223999816e-64  5.7040024912239326e-65  2.9204609723934943e-64  4.2714739569915916e-64  -1.5747688424561467e-64  -5.7731770796750630e-59  9.6277663138542180e-58  4.9870872940730883e-58  6.0257997490433809e-58  7.4695380638248487e-58  3.1779515858314465e-57  -4.6087418754086071e-58  -8.2044456165103748e-59  -6.1222252357471477e-59  8.8922122250376781e-58  3.0693762060707434e-59  2.7792544412900587e-58  7.6454080583978230e-58  1.3350503340368974e-59  -2.2790790619859381e-59  -5.9314256814579151e-59  3.7470859966936849e-63  1.4618339341131598e-62  4.3745141047665267e-65  -1.2633582874275430e-62  -4.8508955786704563e-63  4.4548845432222560e-63  3.1193696682797351e-62  7.1372719786748253e-62  2.0552624157939731e-61  -7.2061819304763344e-62  -8.7194531402285006e-64  1.8263338067337108e-64  1.3565229026929840e-64  1.1856280730459564e-64  1.6290379847803950e-65  -3.7792410118752146e-66  3.2644915731288784e-65  3.0307463692107995e-65  -7.1173170963723112e-65  -1.2484913768316975e-64  6.2647177716925550e-64  1.7888059597849613e-64  4.6677350353299221e-64  1.7563282972194804e-64  2.0163508205657087e-65  -2.4110753259034622e-64  7.2623388362151516e-64  9.8651161777747722e-65  3.0580333905498745e-64  -8.6966506912608529e-58  1.3384596053728092e-57  -8.9434809541759946e-57  -2.8618559496237464e-56  -9.0441316576184817e-57  2.1787970814972011e-61  1.7462434788505290e-62  2.6253114029875029e-61  -3.3354122346024680e-62  -4.2136980466080184e-62  -2.7030400019574946e-63  8.3628314648849202e-62  -1.4600322980699173e-62  -9.2959678147694305e-63  -1.4768066437216201e-61  -1.0211410744299981e-59  -1.6963194799312591e-59  -2.7259041615880708e-59  -1.8994977445287290e-59  -1.9247012181016222e-59  -1.8968449255605092e-59  1.1318286497131389e-58  1.6141389155759687e-66  -1.9759041107582401e-65  -3.5114017736827666e-66  -1.7814527040722930e-66  -1.8189279349178174e-65  2.1590190778424699e-64  -3.0061684938562800e-65  -8.8940446416790931e-66  1.9061099568911111e-65  1.5448864331193672e-69  2.8147888672500992e-69  8.1924026011545315e