<?xml version="1.0"?>
<VTKFile type="UnstructuredGrid"  version="0.1"  >
<UnstructuredGrid>
<Piece  NumberOfPoints="17972" NumberOfCells="84411">
<Points>
<DataArray  type="Float64"  NumberOfComponents="3"  format="ascii">26.3107795715332 2.891041994094849 33.58572006225586  26.66997814567355 3.137974509325426 33.78266766005977  26.43105793388156 2.851609477129381 34.04260685378535  26.2746181526926 3.18396747979204 33.73589184218867  26.70613956451416 2.845049023628235 33.63249588012695  26.46721935272217 2.55868399143219 33.89243507385254  26.62365913391113 2.226325988769531 34.19915008544922  26.86257934570312 2.512691020965576 33.93921089172363  27.10149955749512 2.799056053161621 33.67927169799805  26.23845673385199 3.476892965489231 33.88606362212148  27.9859504699707 6.937576770782471 34.44842147827148  27.30579787946648 6.647991654221384 34.90232427297379  27.74267409604397 6.489069319468566 34.75602222781979  27.62771595590243 6.703076192059953 34.34993811951828  27.66403239353475 6.882492232943901 35.00080763172699  27.3421143170988 6.827407695105331 35.55319378518249  27.42075601960802 6.433984781629997 35.3084083812753  27.26948144183415 6.468575613337436 34.25145476076509  27.38443958197569 6.254568740746049 34.6575388690666  27.49939772211724 6.040561868154662 35.0636229773681  19.91542053222656 10.74433040618896 38.49259948730469  20.97781631389136 10.4883934265134 38.07549117390619  20.37969344639418 10.27986983503281 37.77012010286747  20.3643488266432 10.72320298398911 37.92256494234501  20.5442326392257 10.06618769975696 38.49308087938832  20.52888801947472 10.50952084871326 38.64552571886586  19.93076515197754 10.30099725723267 38.34015464782715  19.94610977172852 9.857664108276367 38.18770980834961  21.14235550672289 10.27471129123756 38.79845195042704  20.81327712105984 10.70207556178925 37.35253039738533  25.08498954772949 0.463454008102417 38.83377838134766  25.41126321160587 0.9165927419266862 38.29355655991743  25.59077112553878 0.4839503187794916 38.42308795272275  25.44905607579513 0.6678848210830919 38.70744120894833  25.18891173328388 0.528227426642411 38.13554047609118  25.04719668354023 0.7121619289460113 38.41989373231677  25.22670459747314 0.2795195057988167 38.54942512512207  25.3684196472168 0.09558500349521637 38.26507186889648  25.00940381935096 0.9608698497896054 38.00600908328587  25.81312260386077 0.8723156340637668 38.58110403654901  24.11541938781738 5.194726943969727 31.59728050231934  24.4621696472168 4.65106201171875 31.71627998352051  24.35771942138672 4.849217414855957 31.39697551727295  24.07438945770264 4.784436941146851 31.75950527191162  24.03335952758789 4.374146938323975 31.92173004150391  24.42113971710205 4.240772008895874 31.87850475311279  24.31668949127197 4.438927412033081 31.55920028686523  24.60001945495605 4.503707885742188 31.19667053222656  24.70446968078613 4.30555248260498 31.51597499847412  24.80891990661621 4.107397079467773 31.83527946472168  20.09869956970215 9.995880126953125 39.02400970458984  20.5449753108858 9.444877641394864 38.69925148854837  20.42407992514361 9.731177823737394 38.52874596486673  20.05243968963623 9.596890926361084 38.89620971679688  20.21959495544434 9.709579944610596 39.19451522827148  20.00617980957031 9.197901725769043 38.76840972900391  20.37782004507769 9.332188623145353 38.40094597707376  20.17333507537842 9.310590744018555 39.06671524047852  20.34049034118652 9.423279762268066 39.36502075195312  20.74946028058507 9.466475520521664 38.03348222514362  27.72801971435547 0.6290249824523926 36.74245834350586  27.54919752488086 1.567983970635634 37.17196897689837  28.18730867133656 1.167082087945452 37.12164447480296  27.59532410383655 0.9503590532562424 37.36520373366332  27.68189313539978 1.246649899831784 36.54922358674091  27.63576655644409 1.864274817211176 36.35598882997595  28.14118209238087 1.784707005324843 36.928409718038  27.46262849331762 1.271693124060092 37.98794912382079  28.05461306081764 1.488416158749302 37.74438986496043  28.64659762831765 1.705139193438511 37.50083060610005  20.79367065429688 2.128743886947632 39.89208984375  20.22572464786577 2.63098368295054 38.93707283358205  20.65788631286313 2.7269204576163 39.59002499673605  21.07547329774052 2.316930257985475 39.14465642707858  20.36150898929952 2.032807112281872 39.23913768059601  19.92934732430216 1.936870337616111 38.58618551744202  20.64331163274316 2.220993483319715 38.49170426392459  21.35727594118417 2.505116629023318 38.39722301040716  20.93968895630677 2.915106828654143 38.84259158006462  20.52210197142938 3.325097028284968 39.28796014972209  30.20601081848145 3.667572975158691 39.89208984375  30.18516256409522 3.230658379562578 39.53790067642785  30.05774786072608 3.710095373161516 39.53790067642785  30.58447437803837 3.357167618292625 39.44669470904188  30.33342552185059 3.188135981559753 39.89208984375  30.46084022521973 2.708698987960815 39.89208984375  30.71188908140751 2.877730624693687 39.44669470904188  30.9629379375953 3.046762261426558 39.00129957433376  30.43621142028301 3.399690016295449 39.09250554171973  29.90948490297071 3.75261777116434 39.18371150910571  23.58745956420898 1.665483951568604 39.89208984375  23.51887584616937 1.137216197539682 39.4959331475338  23.48085975646973 0.9986625015735626 39.89208984375  23.78114986419678 1.323159486055374 39.89208984375  23.81916595389642 1.461713182021494 39.4959331475338  23.28716945648193 1.340986967086792 39.89208984375  22.98687934875488 1.01648998260498 39.89208984375  23.97484016418457 0.9808350205421448 39.89208984375  24.01285625388421 1.119388716508265 39.4959331475338  24.05087234358385 1.257942412474385 39.09977645131762  26.75262773464858 2.716748673128913 34.88231105050889  27.03523913662568 2.421007053847003 34.45586395033642  26.84106759334002 2.919863336235057 34.39183610306029  26.34104773193403 2.522067608051442 34.62559718562169  27.0584760527689 3.613400683700582 34.58452212067137  27.25264759605457 3.114544401312528 34.64854996794749  26.55845619136291 3.215604955516967 34.81828320323277  26.05843632995692 2.817809227333353 35.05204428579417  27.44681913934024 2.615688118924474 34.71257781522362  25.85177420339728 0.4412332022769766 38.09525103060088  25.73736476898193 0.09558500349521637 38.34970664978027  26.10630989074707 0.09558500349521637 38.43434143066406  25.95971624730392 0.4839503187794916 38.50772273360653  26.22071932516242 0.4412332022769766 38.17988581148467  26.33512875957777 0.7868814010587368 37.92543019230526  26.07412568171927 0.8295985175612518 38.25326711442713  21.51262092590332 5.695673942565918 39.89208984375  21.31931591380886 5.446453979054415 39.51974719865302  20.96097088207058 5.574310472050631 39.51974719865302  21.26185608257107 5.797569921055758 39.51974719865302  21.26919555664062 5.121298551559448 39.89208984375  21.57008075714111 5.344558000564575 39.89208984375  21.21173572540283 5.472414493560791 39.89208984375  20.91085052490234 5.249155044555664 39.89208984375  21.62754058837891 4.993442058563232 39.89208984375  21.01109123923882 5.899465899545598 39.14740455355605  20.34650993347168 2.869469881057739 39.89208984375  20.43430595245053 3.097283454671354 39.59002499673605  20.57009029388428 2.499106884002686 39.89208984375  20.13792862888692 2.403170109336926 39.23913768059601  34.50128936767578 12.98351001739502 25.99725914001465  34.81027446891795 12.05661270993076 26.1999093815526  34.51253425106745 12.1608531432295 25.89632627736663  35.07527004386912 12.46923277752719 26.07625406233874  34.23629379272461 12.57088994979858 26.12091445922852  33.97129821777344 12.15826988220215 26.24456977844238  34.24753867611628 11.74823307563307 26.0199815965805  35.64925072006248 11.95495553765936 26.15524898466283  35.08651492726079 11.64657590336168 25.97532119969072  34.52377913445912 11.33819626906399 25.79539341471861  26.85506057739258 10.34403991699219 33.5671501159668  27.53012656259295 9.945026596333632 34.02799543658533  27.47153566422165 10.39805573236426 34.30382963111209  27.3548285377093 10.38023601410438 33.68180073061782  27.03035860227622 9.908830499221438 33.91334482193431  26.97176770390493 10.36185963525206 34.18917901646108  27.08847483041728 10.37967935351194 34.81120791695535  27.14706572878858 9.926650217481313 34.53537372242859  27.20565662715987 9.473621081450689 34.25953952790182  27.85459649802603 10.41643211121657 33.79645134526884  21.08602310276856 7.16111487369607 39.09187588682712  22.0171822726357 7.293482780756726 38.88256271753062  21.57780369031313 7.284157450899102 38.58557520113545  21.58241468590209 7.58024601408942 39.05342921798279  21.52079068950217 6.874351640363376 38.92100938637495  21.95555827623578 6.587588407030682 38.75014288592277  22.01257127704674 6.997394217566409 38.41470870068328  22.07880626903563 7.99937715448277 39.01498254913846  22.07419527344667 7.703288591292452 38.54712853229112  22.0695842778577 7.407200028102135 38.07927451544378  22.85635948181152 11.21975040435791 36.02085113525391  23.53029978294855 10.85525913972302 36.27618753323623  23.42589437981135 11.27246447343273 36.29275285611221  23.31278984776893 10.72371294887894 36.5663504821774  22.96076488494873 10.80254507064819 36.00428581237793  23.06517028808594 10.38533973693848 35.98772048950195  23.41719525090613 10.30650761516922 36.54978515930142  23.76922021372633 10.22767549339997 37.11184982910089  23.88232474576875 10.77642701795376 36.8382522030357  23.99542927781117 11.32517854250756 36.56465457697051  22.89797019958496 10.33263969421387 39.89208984375  23.33815279558123 10.62672116125126 39.46147257463338  23.14530452843989 10.1168171226173 39.3316267198168  23.28916549682617 10.2814998626709 39.89208984375  23.68036079406738 10.23036003112793 39.89208984375  23.72934809282244 10.5755813297083 39.46147257463338  23.5364998256811 10.06567729107433 39.3316267198168  23.39263885729481 9.900994551020734 38.77116359588359  23.58548712443616 10.4108985896547 38.90100945070017  23.7783353915775 10.92
[...]
<PointData  Scalars="p_CO2"> 
<DataArray  type="Float64"  Name="p_CO2"  format="ascii">4.5002356183028759e+01  4.5000748025755946e+01  4.4999429669261396e+01  4.4999607294522029e+01  4.5001093317078308e+01  4.4999366714125159e+01  4.5002336887269045e+01  4.4999268149164358e+01  4.5003198215594857e+01  4.4999907667358585e+01  4.4998709565402194e+01  4.4999255204988572e+01  4.5001156584499007e+01  4.5000612200345358e+01  4.4993903809612000e+01  4.4998821017163088e+01  4.4997655980289231e+01  4.5001178318741168e+01  4.5001773543193984e+01  4.4999086532532544e+01  4.5006292476948012e+01  4.4998073156693003e+01  4.5004679039180694e+01  4.5002227844144670e+01  4.5004963733203716e+01  4.4998732825801945e+01  4.4994162070661432e+01  4.5002068027368196e+01  4.4997238972346842e+01  4.4997135462744687e+01  4.4998940701559761e+01  4.5000328021908871e+01  4.5002178705958556e+01  4.5001425359455460e+01  4.5000613592794771e+01  4.5003286673738792e+01  4.4997707709345448e+01  4.5001326012147700e+01  4.4999175289710806e+01  4.4998037730466535e+01  4.4998892893068138e+01  4.4996231471409729e+01  4.5002236727091322e+01  4.5001515983129387e+01  4.5003531732038795e+01  4.4995609216766894e+01  4.4990806486557368e+01  4.4999875263781448e+01  4.5004286423080842e+01  4.5005745756193164e+01  4.5001887292233171e+01  4.4994373694388081e+01  4.4995002499761135e+01  4.5003274651122403e+01  4.4999427062525712e+01  4.5009120696952650e+01  4.5006071407009713e+01  4.4994632984466506e+01  4.4997310679933094e+01  4.5001922796891819e+01  4.5002093297501155e+01  4.4999479554022436e+01  4.5001317280427195e+01  4.4998445542948346e+01  4.5000151920679713e+01  4.4999690575617130e+01  4.5000051581995855e+01  4.5000788078028833e+01  4.4999820370959469e+01  4.4999753476042045e+01  4.4995779896477167e+01  4.4998648714455115e+01  4.5003564711583103e+01  4.5000139961634062e+01  4.5007657419300088e+01  4.4998587343105925e+01  4.4997913901182962e+01  4.5000305810017174e+01  4.4997098989971867e+01  4.5002078973461060e+01  4.5000116066328040e+01  4.4999938679365279e+01  4.5000273291689894e+01  4.5000371347387400e+01  4.5000045239155547e+01  4.4999932992617509e+01  4.5000430031333785e+01  4.5000236757960472e+01  4.5000331182895813e+01  4.4999614207134321e+01  4.4999153718660999e+01  4.5004529294717976e+01  4.5004545599341029e+01  4.4999721326885343e+01  4.5000060033637766e+01  4.5004246681731132e+01  4.4997993801380332e+01  4.4994721868591789e+01  4.5000678137017616e+01  4.4999898653481615e+01  4.4999677659431185e+01  4.4999106380277723e+01  4.5000676305466150e+01  4.5001009004207035e+01  4.5001257263043165e+01  4.5000500100711562e+01  4.4998521132753091e+01  4.4999452830599097e+01  4.5000544880903945e+01  4.5000842058395634e+01  4.5001856355176578e+01  4.5000763046065060e+01  4.4998855845343513e+01  4.4998709996381756e+01  4.4999847204842695e+01  4.5001728257659110e+01  4.5008379631091550e+01  4.4986334917480917e+01  4.4994102506513720e+01  4.4996584929206392e+01  4.4997248070933736e+01  4.5001772874733042e+01  4.4993999099176364e+01  4.5004710309328722e+01  4.4997467981239680e+01  4.4998936949466881e+01  4.4999277707371199e+01  4.5002804098278716e+01  4.4998862144130655e+01  4.5001426273689091e+01  4.4990959003890978e+01  4.5003682645642776e+01  4.4961503484597273e+01  4.5013207999458565e+01  4.4985330872173769e+01  4.5009798907852371e+01  4.4985980322501327e+01  4.5003966803795969e+01  4.5012809113114230e+01  4.5014069025336937e+01  4.4986324707802119e+01  4.4999060231921327e+01  4.4997163591744560e+01  4.5010713522009205e+01  4.4997890986694351e+01  4.4999264189639085e+01  4.4998623864920312e+01  4.5001057703548483e+01  4.5000589941869002e+01  4.4998618522774294e+01  4.4998784845917925e+01  4.5006285883059419e+01  4.5001030214195289e+01  4.5007551140973412e+01  4.5002720360909542e+01  4.5000836996556458e+01  4.4995911819471729e+01  4.4996720050475403e+01  4.5000046365272411e+01  4.4996618502808417e+01  4.5003070101858029e+01  4.5001635518917915e+01  4.4993704208300414e+01  4.5001127090758743e+01  4.4998833214241436e+01  4.4998083154061398e+01  4.5000248074857751e+01  4.4999262333633069e+01  4.4998026259770832e+01  4.5001827126830520e+01  4.5000497259394166e+01  4.4999940608969503e+01  4.4999797569083874e+01  4.5000446798526191e+01  4.4999907648792188e+01  4.4999736856667283e+01  4.5001064480647969e+01  4.4999650761604663e+01  4.4999274006663953e+01  4.5000020240145922e+01  4.4999994522917902e+01  4.5000363449769424e+01  4.5000500738430297e+01  4.5000407253383187e+01  4.4999722396146623e+01  4.5000586507580209e+01  4.4998980538183062e+01  4.4999244916313870e+01  4.4999707541146243e+01  4.5000214280736486e+01  4.5004758483801979e+01  4.4997364709135169e+01  4.5006329520688638e+01  4.4999490557399071e+01  4.4991347158865437e+01  4.5000123241170968e+01  4.4999432514912115e+01  4.5000209438093329e+01  4.5000979468040697e+01  4.4997431706563788e+01  4.5000109856097296e+01  4.5000403150044484e+01  4.5000327460233457e+01  4.5000169967838929e+01  4.4999590421016805e+01  4.5000126186860108e+01  4.5000259820009134e+01  4.4999713465833928e+01  4.4999015899204451e+01  4.4999675654530172e+01  4.4999979759908300e+01  4.5000052997272668e+01  4.5000384641987459e+01  4.5000002359801265e+01  4.5000211457460416e+01  4.5000012214788640e+01  4.4999849132004002e+01  4.5000012787994841e+01  4.4999768353663534e+01  4.4999787441276020e+01  4.4998286483171647e+01  4.5001172614043284e+01  4.4998176884016189e+01  4.4998229451361937e+01  4.5001692406755595e+01  4.5001579301431832e+01  4.5000069346493447e+01  4.4998258299784126e+01  4.5000067710895294e+01  4.5000051159710992e+01  4.5002745078445869e+01  4.4993902592718037e+01  4.4995348407202620e+01  4.4993828279988442e+01  4.5002477174584563e+01  4.5004298587760054e+01  4.4998632930057994e+01  4.4992591971903167e+01  4.5000761600482370e+01  4.4998577677633392e+01  4.5004491271942534e+01  4.4999290151647344e+01  4.5003633779678019e+01  4.5002827048808285e+01  4.4997686429746778e+01  4.5001993349244700e+01  4.4994805055076952e+01  4.5009646284604976e+01  4.5005571639299397e+01  4.5000261633002282e+01  4.5003912114453392e+01  4.4994821812808127e+01  4.5002376049227244e+01  4.4997021511647915e+01  4.4999943263557647e+01  4.5002030375855782e+01  4.5000425032048291e+01  4.5005748582217720e+01  4.4999098683908443e+01  4.5002130823703872e+01  4.4999423116681747e+01  4.5000469641765484e+01  4.4999951557807954e+01  4.4999468524547488e+01  4.5003106089287158e+01  4.5001630726591316e+01  4.5000247437763733e+01  4.4996868237077102e+01  4.4999856199945015e+01  4.5000056151057834e+01  4.4996072452562402e+01  4.4991724286653209e+01  4.4998642530486741e+01  4.4995000433182703e+01  4.5001225077517624e+01  4.5002272129834722e+01  4.4999866878946854e+01  4.4997800175793515e+01  4.5000966123809071e+01  4.4998321502519225e+01  4.5001847239990191e+01  4.4997584488522492e+01  4.5003028127497991e+01  4.5002446366936773e+01  4.5003202979174496e+01  4.5004202936814480e+01  4.4997619884870637e+01  4.5001508681217750e+01  4.5003416128691995e+01  4.4994662064905718e+01  4.5002483215025592e+01  4.4996501248205185e+01  4.4999310566216820e+01  4.4997393912756188e+01  4.5002325365743033e+01  4.4999919555344981e+01  4.4999369402730515e+01  4.5000034617666245e+01  4.5000214015302994e+01  4.5000043884058300e+01  4.5000035407998809e+01  4.5000065952474017e+01  4.4999886609778606e+01  4.4999604602345059e+01  4.5001976294413716e+01  4.5000261917862211e+01  4.4996281595271491e+01  4.5001972179520862e+01  4.4998003645439056e+01  4.4996567682208102e+01  4.5004148933806917e+01  4.4997858098669965e+01  4.5000345421482848e+01  4.5002694362457945e+01  4.5004767888191843e+01  4.5001255904096141e+01  4.5005946780745568e+01  4.4996623570009909e+01  4.4996889888386605e+01  4.5014446807486486e+01  4.5003004974928785e+01  4.4998600756078602e+01  4.5000781369874602e+01  4.4997600803582124e+01  4.5009130012182204e+01  4.5000319709187188e+01  4.4996753057382570e+01  4.4998792082066885e+01  4.4997566271134275e+01  4.4997984956398092e+01  4.5000393119133335e+01  4.4999050751337968e+01  4.5000437758690900e+01  4.5002171523082609e+01  4.5011062606367169e+01  4.5007528664693979e+01  4.4998885118535881e+01  4.4998610660334947e+01  4.5000025134550221e+01  4.5001695347178895e+01  4.5005567567643688e+01  4.5003095947289275e+01  4.5001887070562809e+01  4.5004982468581197e+01  4.4999222219817824e+01  4.5010014291187467e+01  4.5000204058555632e+01  4.5002254757125641e+01  4.5000378910191060e+01  4.5002011366992541e+01  4.4999338620242824e+01  4.5001886884674292e+01  4.4999672947629662e+01  4.5007472015612514e+01  4.4999643275262578e+01  4.5040642844770659e+01  4.5035737798939756e+01  4.5013787799274795e+01  4.5028137432593162e+01  4.4964767664735120e+01  4.5009700604328216e+01  4.4991705843170990e+01  4.5016724446531171e+01  4.5001445020095879e+01  4.5007138166390419e+01  4.4995952716728659e+01  4.4995584831117711e+01  4.4998958347890557e+01  4.5003696983639870e+01  4.5000307277163117e+01  4.5002090075852031e+01  4.5000073200980196e+01  4.5001167090933713e+01  4.5000755961942488e+01  4.4999594304562684e+01  4.4996329449775565e+01  4.5004130883660977e+01  4.5001098254822715e+01  4.4995699469650241e+01  4.5008932783382932e+01  4.5000850632512226e+01  4.5001506557630620e+01  4.4998629333157233e+01  4.4996256137481431e+01  4.5000686540508426e+01  4.5001788310246127e+01  4.5000836933700135e+01  4.4999162722108821e+01  4.5003016369243561e+01  4.4995923140097091e+01  4.4999903391165212e+01  4.5006584080560629e+01  4.5002797890631150e+01  4.4994052509112926e+01  4.5003823554681553e+01  4.4995155417540808e+01  4.4999702262549214e+01  4.4990413735271787e+01  4.5003311942922409e+01  4.5001445022650266e+01  4.5000038848913903e+01  4.4990045649153387e+01  4.4997845712021793e+01  4.5000828203797326e+01  4.4993944703669413e+01  4.5011033242544208e+01  4.4994521886615019e+01  4.4996498933064665e+01  4.5015245293698314e+01  4.4991205483918563e+01  4.4999288606471559e+01  4.4998601586485840e+01  4.5003439146295555e+01  4.5006349357344710e+01  4.4999763304749699e+01  4.4999964796664919e+01  4.5000296084824932e+01  4.4999623773077701e+01  4.4999797373066357e+01  4.4996019913750025e+01  4.5009768699927726e+01  4.4996529850545414e+01  4.5008735282623007e+01  4.5005188605674270e+01  4.4991482624626741e+01  4.4998998079175749e+01  4.5000541321302236e+01  4.4999460591078012e+01  4.4999898367555893e+01  4.4996769534645807e+01  4.5008059016109890e+01  4.5000155541797369e+01  4.4998771539245823e+01  4.4999766462250342e+01  4.4999751284302583e+01  4.4999463527557140e+01  4.5000170788514353e+01  4.4999971323082022e+01  4.4999994002376518e+01  4.5000187338358522e+01  4.4998336209879803e+01  4.5001008529942126e+01  4.4997662178327431e+01  4.5000297847865838e+01  4.4995505064578694e+01  4.5003140035750135e+01  4.4995866134211376e+01  4.4998272463702200e+01  4.5003217879449274e+01  4.4999599606414776e+01  4.4999824608685742e+01  4.4996004623174890e+01  4.5010679607503981e+01  4.4988518344083509e+01  4.5008330319466943e+01  4.5009248531735814e+01  4.5009563801878514e+01  4.5002238677408428e+01  4.4998433262247218e+01  4.5009218200897067e+01  4.4997907738614757e+01  4.5010549237390698e+01  4.4999627694464273e+01  4.4996921425156096e+01  4.5005130760022453e+01  4.4980149205379298e+01  4.5002481579922630e+01  4.5003433306365388e+01  4.5000255157722954e+01  4.4998895879148129e+01  4.4997827187790747e+01  4.5001553958704733e+01  4.4998924648771251e+01  4.5004667691102952e+01  4.5003546152028711e+01  4.4998832583462423e+01  4.4998976631141069e+01  4.5000466730297475e+01  4.4998639341779658e+01  4.5000238404273389e+01  4.5000210776590393e+01  4.4999011884562677e+01  4.5000481389921788e+01  4.5000161610652547e+01  4.4995915543109710e+01  4.4998475191940308e+01  4.4999565042309555e+01  4.4998281786743767e+01  4.4998914149984415e+01  4.5008017855271625e+01  4.5004307857040864e+01  4.5000488538437992e+01  4.5000676756111588e+01  4.5002583988669485e+01  4.4999901850069833e+01  4.5001232809362477e+01  4.5003935636093949e+01  4.5000948290088147e+01  4.5004689718574319e+01  4.4996792412156900e+01  4.4998766004729966e+01  4.4994877288566272e+01  4.4998941704201869e+01  4.4998867443494930e+01  4.4999079579583423e+01  4.4995134560954440e+01  4.4999650846784107e+01  4.4998201215878716e+01  4.5000126622657397e+01  4.4998904902225391e+01  4.4991124108203394e+01  4.5009848124452979e+01  4.5012560586916337e+01  4.4991141209301418e+01  4.4994818486663462e+01  4.4996631599473886e+01  4.4995129171722624e+01  4.4998036751367181e+01  4.4997254912073721e+01  4.5000047752734723e+01  4.4998534067055516e+01  4.5000304176344024e+01  4.5000454702363648e+01  4.4999110096372682e+01  4.4998528826079358e+01  4.5003765991150800e+01  4.5008777667680448e+01  4.5003413584729770e+01  4.4993841125497553e+01  4.5004589270810783e+01  4.5013223472666482e+01  4.5006183464322866e+01  4.4996257473166793e+01  4.4999519250967090e+01  4.5002371236307397e+01  4.4999718322855969e+01  4.4999430005691842e+01  4.5000479980967157e+01  4.5000678826531370e+01  4.4999211469584395e+01  4.4999728957905631e+01  4.5000309546378837e+01  4.5000208031219799e+01  4.4995989120604044e+01  4.4999679885740242e+01  4.5002703010787947e+01  4.5001322343326109e+01  4.5000281523052152e+01  4.5000957245513376e+01  4.5002968537174993e+01  4.4997763473475061e+01  4.5002803857992419e+01  4.5000064176610323e+01  4.5000104355619563e+01  4.5000167667476724e+01  4.5000604616300741e+01  4.4999301055538361e+01  4.5000133666029363e+01  4.4967901280466734e+01  4.5012670577616063e+01  4.5030742649550326e+01  4.4975756514411628e+01  4.4974249485420174e+01  4.5011814903519031e+01  4.4966787390053824e+01  4.4976306895844928e+01  4.4996158608906605e+01  4.4999137265813381e+01  4.4996833254803732e+01  4.5002641829789184e+01  4.4998676370933119e+01  4.5002900258288101e+01  4.4998349828655186e+01  4.5001649809020819e+01  4.5001980616218205e+01  4.5001941181987370e+01  4.5000948826347702e+01  4.4999174674875071e+01  4.5000883059636692e+01  4.5001691624174448e+01  4.4998732375902513e+01  4.5000071934396686e+01  4.4998948863423948e+01  4.4999459955791139e+01  4.5002705122408550e+01  4.4999587400081708e+01  4.5000504148610162e+01  4.4999395340489272e+01  4.5000524191515566e+01  4.5000365430463646e+01  4.4999104155137374e+01  4.4999473482810480e+01  4.4999972324465247e+01  4.5000158946451172e+01  4.5028080943371883e+01  4.4989735279481010e+01  4.4990971257664413e+01  4.4992668020849194e+01  4.5009186205120869e+01  4.5007859244469074e+01  4.5009428376765769e+01  4.5034202549362234e+01  4.5000075303159811e+01  4.4999841409455520e+01  4.4999904994262543e+01  4.4999577133872755e+01  4.5000138202834606e+01  4.4999939016071430e+01  4.4999583248481926e+01  4.4999983877498764e+01  4.5000181781649452e+01  4.5000268401882799e+01  4.5000130666635606e+01  4.5005792402358203e+01  4.5001069353810024e+01  4.4997151752558494e+01  4.5000064429508640e+01  4.4997105112337884e+01  4.5004743685873706e+01  4.5001021058009897e+01  4.4998837904637703e+01  4.4999567636472818e+01  4.5000187008098173e+01  4.4998768320998430e+01  4.5000629438386710e+01  4.4999449339297371e+01  4.5000744061815418e+01  4.5001572146011704e+01  4.4999724371072297e+01  4.4999785603619578e+01  4.5000244140002827e+01  4.5034291289052504e+01  4.4993663864099268e+01  4.5010278656189797e+01  4.4982724778245668e+01  4.4993316477636888e+01  4.5008216556809657e+01  4.4995101295948231e+01  4.5001261765170455e+01  4.5009477191181887e+01  4.5004096055431376e+01  4.4999761368289619e+01  4.5000512946440807e+01  4.5000284065590435e+01  4.5000380180274668e+01  4.4999522855788037e+01  4.5000403528342808e+01  4.5000086620867421e+01  4.4999673646431127e+01  4.5002104137731820e+01  4.5000453136586174e+01  4.4999784732446237e+01  4.4999795610601623e+01  4.4999559501573607e+01  4.5009906362823152e+01  4.4999565606246215e+01  4.5001256334531412e+01  4.5008860863173325e+01  4.5010114811026575e+01  4.4992506991419390e+01  4.5003421831457452e+01  4.5003221586207800e+01  4.4988467897986617e+01  4.5002553504408631e+01  4.5010041645090027e+01  4.4996533142535291e+01  4.5007106880931886e+01  4.4996805964484288e+01  4.5004669911122456e+01  4.5006362729133713e+01  4.5000618061743893e+01  4.5000584366034282e+01  4.4999045295864221e+01  4.5003267293892314e+01  4.5001974083518029e+01  4.4999262914051442e+01  4.5000436998023559e+01  4.5000461039480101e+01  4.4996997939093220e+01  4.4999170903802778e+01  4.5000149467299082e+01  4.5001588924940059e+01  4.4997659785827615e+01  4.4996449928398498e+01  4.4999217156773099e+01  4.4994656070309972e+01  4.4985231283520079e+01  4.4978981930408857e+01  4.5006003163972615e+01  4.5004682670637159e+01  4.5017317928761408e+01  4.5012965222161462e+01  4.5000979175669443e+01  4.4999779045410186e+01  4.4999638926013418e+01  4.5001917344409229e+01  4.5001101573313356e+01  4.5002761624053846e+01  4.5002998658588183e+01  4.5003021656408009e+01  4.5003372675467872e+01  4.4998290848557303e+01  4.5003339409584406e+01  4.4998761556568631e+01  4.4999488768837381e+01  4.4990506321145673e+01  4.4997027617979747e+01  4.5004187422953883e+01  4.5001391837677090e+01  4.5003151263713669e+01  4.5000396401802789e+01  4.4997888094467129e+01  4.4991165438039530e+01  4.5003606072907800e+01  4.4989985307680726e+01  4.5000645264576278e+01  4.4996756609970184e+01  4.4995417386755399e+01  4.4998975512187847e+01  4.4996291333107514e+01  4.4994042379890175e+01  4.4965219244022620e+01  4.5006448154963735e+01  4.5000515668168951e+01  4.4979038486019817e+01  4.4973687648868733e+01  4.5008781678480133e+01  4.4999477979591013e+01  4.4997579880897703e+01  4.5004781825364070e+01  4.5004786247942050e+01  4.5003658264402453e+01  4.5005119476954860e+01  4.5002349245258330e+01  4.4998907007862691e+01  4.4994105990048567e+01  4.4999684079305204e+01  4.4997731757681272e+01  4.5006412949296852e+01  4.5004262064135425e+01  4.5017233704596656e+01  4.5008384712883355e+01  4.5004093489752080e+01  4.4999592355968687e+01  4.4995875981235073e+01  4.4992692273190563e+01  4.5001526411938897e+01  4.5005493111267313e+01  4.4998934435841988e+01  4.5003081072985154e+01  4.4983971065789120e+01  4.5005014867143458e+01  4.5001236659146727e+01  4.5000356975378494e+01  4.5006821366403656e+01  4.5000218170290054e+01  4.5005826375159593e+01  4.4996586608188231e+01  4.4994059021360002e+01  4.5001978519077532e+01  4.4995914484081823e+01  4.5002105137527337e+01  4.4998275011735565e+01  4.4997190114558514e+01  4.5000362187486630e+01  4.4996039548815176e+01  4.4998199814799165e+01  4.4996312819875335e+01  4.4998227086860418e+01  4.4995960364287384e+01  4.4998300753346946e+01  4.4993720650799631e+01  4.5002136013329434e+01  4.4999871964948959e+01  4.5006021128261743e+01  4.4923423159856860e+01  4.4996600999001778e+01  4.4994059113892945e+01  4.4997923536149550e+01  4.4997989936961396e+01  4.4999337744100707e+01  4.5006401136766769e+01  4.4996974727107066e+01  4.5001917355396436e+01  4.5004228682109648e+01  4.5000557833757100e+01  4.5014972703282815e+01  4.4997894180523886e+01  4.5013771814843800e+01  4.5040619282325665e+01  4.5009322358450127e+01  4.4993908367039701e+01  4.5020969503642220e+01  4.5007537281140024e+01  4.5024091568378587e+01  4.5001147314833688e+01  4.4999249781496339e+01  4.4999541713237448e+01  4.5002676846357225e+01  4.4996133024051069e+01  4.4996144042578500e+01  4.5004819004985613e+01  4.5000582973970829e+01  4.5005728337301292e+01  4.4996620846744136e+01  4.5007237132608530e+01  4.5001393763382829e+01  4.4998883878866550e+01  4.5002036197936469e+01  4.4999726959502055e+01  4.4999565422074639e+01  4.5000148592847275e+01  4.5000714583398164e+01  4.5000283542806251e+01  4.4999421631126523e+01  4.5000247553410951e+01  4.5000377134785360e+01  4.5000020288981453e+01  4.4999779278266097e+01  4.5007775015786947e+01  4.4995498512754345e+01  4.4996603780728051e+01  4.5003218205202423e+01  4.4987895380618909e+01  4.4989627892900700e+01  4.4995083543255006e+01  4.4999700880061944e+01  4.5004213980207517e+01  4.4999163311757449e+01  4.500645951153662