<?xml version="1.0"?>
<VTKFile type="UnstructuredGrid"  version="0.1"  >
<UnstructuredGrid>
<Piece  NumberOfPoints="17785" NumberOfCells="84481">
<Points>
<DataArray  type="Float64"  NumberOfComponents="3"  format="ascii">0.09939099848270416 26.18440055847168 26.42700958251953  0.6143885125622164 26.23552143192238 26.57737143535697  0.4822669294169448 25.7395738761102 26.63034010140429  0.5293029919266701 26.00477504730225 26.23482513427734  0.959214985370636 25.82514953613281 26.04264068603516  0.997264443496457 25.7906947495609 26.78070195424173  1.044300506006182 26.05589592075294 26.38518698711478  0.9121789228609107 25.55994836494077 26.43815565316211  0.8651428603511855 25.29474719374873 26.83367062028906  1.129386026641729 26.28664230537307 26.7277332881944  0.5470983750731757 23.28713122344634 28.90347986936764  1.006984772811754 23.70852039111275 28.47720529687561  0.7904456450963264 23.17554578289361 28.63130492697139  0.6103980383443653 23.59893908235947 28.44121406972978  0.7636375027886034 23.82010583166548 28.74938023927186  0.9801766305040311 24.35308043988463 28.59528060917609  0.8269371660597931 24.13191369057861 28.28711443963401  0.673697701615555 23.91074694127261 27.97894827009193  0.8537453083675161 23.48735364180674 28.16903912733353  1.033792915119477 23.06396034234088 28.35912998457514  1.732905030250549 25.60931968688965 26.25016975402832  1.482305482845901 25.19185662472657 26.47055924780646  1.86953945539534 25.15741658413819 26.57474912054816  1.717242971878647 25.45459675991944 26.58307374365607  1.650264024734497 25.04939937591553 26.1293306350708  1.497967541217804 25.34657955169678 26.13765525817871  1.885201513767242 25.3121395111084 26.24184513092041  2.037497997283936 25.01495933532715 26.2335205078125  1.263030052185059 25.08383941650391 26.0251407623291  1.701580913506744 25.29987383294923 26.91597773328381  1.592478748030701 24.71328763008588 27.88309758240455  1.402536434860713 23.92655101708649 27.50410475852083  2.007794083313551 24.14708913608369 27.56627741929432  1.68010006881578 24.1753967007549 27.98193757723486  1.314915114075633 24.46444194641747 27.40526476369051  1.642609128573404 24.43613438174626 26.98960460574997  1.920172762528471 24.68498006541467 27.467437424464  2.247866777026243 24.65667250074346 27.05177726652346  1.037351480120565 24.21559626274907 26.92743194497648  1.76772138960086 23.63750577142392 28.08077757206518  0.09939099848270416 24.7395191192627 26.98200988769531  0.5683712393016348 23.94095280971926 26.96276134449752  0.5683712393016348 24.21431306209963 27.36255592304977  0.5683712393016348 24.47755769100588 26.9547209163359  0.09939099848270416 24.20291423797607 26.99005031585693  0.09939099848270416 24.47627449035645 27.38984489440918  0.09939099848270416 24.2130298614502 27.79767990112305  0.09939099848270416 25.13376045227051 27.94977951049805  0.5683712393016348 24.67467835750979 27.43860572773727  0.09939099848270416 24.67339515686035 27.87372970581055  0.09939099848270416 24.9366397857666 27.46589469909668  1.477843999862671 24.74985980987549 25.91770076751709  1.537424738702251 24.61527779903811 26.58047622639449  7.943294048309326 30.10050010681152 28.73106002807617  8.415764331817627 29.94065952301025 28.1431245803833  8.425753116607666 30.02540016174316 28.51014995574951  8.19849705696106 30.28563976287842 28.39896488189697  8.453700065612793 30.47077941894531 28.06686973571777  2.078997654983052 23.93007984683385 29.21135479393065  2.813484779817829 23.90101087843615 29.54032737658685  2.44686653476884 23.2507554164548 29.4803311905447  3.340797110638329 23.50285766996099 29.12644801371363  3.547971904652607 23.87194191003845 29.86929995924306  5.192005723977822 23.61684857944168 29.96813006665245  5.106366183136676 23.90821461912017 30.32193427852955  5.17938835186558 23.38356861634069 30.49306893930208  4.761039136851177 23.44717909215241 30.53412047446857  4.330072549724532 23.27750960486314 31.10011088228469  4.675399596010031 23.7385451318309 30.88792468634567  4.748421764738934 23.21389912905142 31.0590593471182  5.166770979753337 23.1502886532397 31.01800781195172  5.093748811024433 23.67493465601918 30.84687315117919  5.02072664229553 24.19958065879865 30.67573849040666  2.279376084686197 25.24589617598585 27.38381765729446  2.38843846521587 24.76761578379786 28.06063823066315  1.951682070188426 25.27420374065706 27.79947781523501  2.310885392346151 25.83511985122824 27.71585804806547  2.716132479713641 24.73930821912666 27.6449780727226  2.747641787373595 25.32853189436904 27.97701846349361  3.184398182401039 24.82194393750985 28.23817887892175  4.632520890543404 24.93367911315386 29.48520598667826  4.297103306996005 24.79009124681636 28.59702268890574  4.338307116365487 25.27221797462847 29.07878919500733  3.908459536472222 24.87781152533186 28.86169243280001  3.614245762294305 25.21635038680646 28.45527564112908  4.044093342187571 25.61075683610308 28.67237240333641  5.603785991668701 23.52798080444336 31.03293037414551  5.385278485711019 23.33913472884153 31.02546909304861  5.464854117068914 23.31697774939563 31.24013249327321  5.592647552490234 22.98252582550049 31.09804058074951  5.581509113311768 22.43707084655762 31.16315078735352  5.374140046532553 22.79367974989866 31.09057929965262  5.453715677890448 22.77152277045276 31.30524269987721  5.325922242469128 23.10597469434791 31.44733461240091  5.246346611111232 23.12813167379381 31.23267121217631  1.415483470074236 25.79325806916115 26.82185551073911  1.299023945300867 25.45203344031919 26.54192018715869  1.431145528446139 25.94798099613136 26.48895152111136  1.283361886928965 25.29731051334898 26.87482417678643  5.547937373958434 24.09516500896476 30.44687898794015  5.507501821361388 24.50126528209708 30.22165449300606  3.331923961639404 25.56801986694336 27.19799995422363  3.258161072020222 25.1949819022266 27.71808941657269  2.821404676992778 25.7015698590858 27.45692900114455  2.789895369332823 25.11234618384341 27.12488861037355  0.8459348732567024 24.46315874576804 27.8403887417638  0.3865443500491296 24.52225369677156 27.96436389029499  0.8459348732567024 24.92352404117819 27.9164385464513  0.3865443500491296 24.0618884013614 27.88831408560749  1.133088224823128 24.31201728567924 27.93102292624824  0.7667739987373352 25.45992088317871 29.04099082946777  1.073646769209229 25.04067803416586 28.22513774385824  0.5397838144933677 24.74342044607756 28.27253005983707  0.8734753146206832 24.90650066153167 28.81813571932193  0.4330824986100197 25.29684066772461 28.49538516998291  0.9669454533258809 25.5940982558129 28.44799285400408  0.6332539531985654 25.4310180403588 27.90238719451921  1.167116907914427 25.7282756284471 27.85499487854038  1.379797827972564 25.22078162926649 27.86904623047246  1.286327689267366 24.53318403498525 28.23918909579032  2.142682387155089 24.8358159180353 26.64264888716798  1.974723845266493 24.97827316684634 26.98387749990363  1.369466196813655 24.75773504784915 26.92170483913015  3.779550284631663 22.39107931374284 30.26789694661704  4.026085881960403 22.54227586773667 31.07960643790651  4.307353299965262 22.21333229308946 30.76000519843564  4.054811417178097 22.83429445930299 30.68400391445086  4.582614432511697 22.65654743864962 31.17611216626946  4.835156315298861 22.03558527243609 31.25211345025424  1.372979998588562 23.77318954467773 30.14014053344727  1.625876805816416 23.52163477204974 29.31961706371337  1.476308814321284 23.97351522706683 29.28533724041015  1.725988826785807 23.85163469575579 29.67574766368896  1.123299986124039 23.89507007598877 29.74973011016846  1.272867977619171 23.44318962097168 29.78400993347168  0.8736199736595154 24.0169506072998 29.35931968688965  1.023187965154648 23.56507015228271 29.39359951019287  1.17275595664978 23.11318969726562 29.42787933349609  1.974265298877482 23.48229952119524 29.76525285930664  1.521144449710846 23.07385444641113 29.87351512908936  1.621256470680237 23.40385437011719 30.22964572906494  1.869532942771912 23.03451919555664 30.31915092468262  2.304615020751953 22.29099082946777 30.64755058288574  2.834779547604039 22.86490966505283 30.40589578431236  2.579719350702701 22.72468958674884 30.85501728217585  3.042082652691808 22.3410350716053 30.45772376475139  2.854823680653449 23.15838834402992 31.06248398146597  3.317186982642556 22.77473382888638 30.6651904640415  1.220709545608207 23.77412635634826 28.02986292107855  0.8555245908680602 24.06317160201084 27.4531901075342  1.647029830768722 25.00658073151755 27.39953765784418  4.817747996471798 22.87049823135736 30.65843085882711  5.248714583598443 23.04016771864663 30.09244045101099  5.2360972114862 22.80688775554564 30.61737932366063  4.850184917449951 25.71717071533203 28.61721992492676  4.600554094494664 25.18520305641824 28.53624132404369  4.447139129818761 25.66396377571755 28.64479616413158  4.741352903996678 25.32542491424295 29.05121295580251  4.894767868672581 24.84666419494363 28.94265811571462  5.003599882125854 25.23840999603271 28.50866508483887  5.157014846801758 24.7596492767334 28.40011024475098  2.262239933013916 26.07181930541992 26.67618942260742  2.420067649443034 25.56680518776011 27.18435934477248  2.286562662680033 25.95346957832408 27.19602373533645  2.79708194732666 25.81991958618164 26.93709468841553  2.395744919776917 25.68515491485596 26.66452503204346  2.930586934089661 25.43325519561768 26.92543029785156  2.529249906539917 25.29849052429199 26.65286064147949  0.4330824986100197 24.97567558288574 28.85503005981445  0.09939099848270416 24.81259536743164 28.30942440032959  0.09939099848270416 24.49143028259277 28.66906929016113  0.5397838144933677 24.4222553612387 28.63217494966861  5.994277000427246 24.80294990539551 29.76757049560547  4.912263307260613 24.27526384629777 29.72666802666535  5.313398945485325 24.86831450927469 29.62638824114186  5.880616903305054 24.6132698059082 29.35883522033691  5.766956806182861 24.4235897064209 28.95009994506836  5.199738848363133 24.67863440978738 29.2176
[...]
<PointData  Scalars="p_O2"> 
<DataArray  type="Float64"  Name="p_O2"  format="ascii">4.0000000000000000e+01  7.5481402446249476e+01  6.4256530750267160e+01  8.2863284444041426e+01  9.1075640713056302e+01  7.7356719568163328e+01  8.5717820233544558e+01  8.1496394514461358e+01  7.3278841353032774e+01  8.2314165233752277e+01  8.9665192545279268e+01  8.0755885265032518e+01  8.6059887903786489e+01  7.2702920349872002e+01  8.1961066587776017e+01  8.0703483552277660e+01  7.2417094844187957e+01  6.4679413622604386e+01  7.5113015173263108e+01  8.5512441390205680e+01  9.3606840318501725e+01  8.8405228904427432e+01  9.0967064780188082e+01  8.9819669137065318e+01  9.3634764275144235e+01  9.2879299411937396e+01  9.4376702102233367e+01  9.4888077931861872e+01  9.2894714991534684e+01  8.6723841617246649e+01  8.2985186250568830e+01  8.0168099556919614e+01  8.7512078253707557e+01  8.4587395695328041e+01  7.8458545461302066e+01  8.5052539034053197e+01  8.6623125562408987e+01  9.0756204732465335e+01  7.7240872479666777e+01  8.7058242737006140e+01  4.0000000000000000e+01  6.7335171954401389e+01  6.0453694762079103e+01  6.8093809726531205e+01  4.0000000000000000e+01  4.0000000000000000e+01  4.0000000000000000e+01  4.0000000000000000e+01  5.9521917226284152e+01  4.0000000000000000e+01  4.0000000000000000e+01  9.4591847349631863e+01  8.7308322198657379e+01  1.0003674602253477e+02  1.0002390269571001e+02  9.9973374551035278e+01  9.9986490866989783e+01  9.9975213307058468e+01  9.3874561865953524e+01  9.6373869347334306e+01  9.6439604470876944e+01  9.6824686702973509e+01  9.7796533212017692e+01  9.9237576116412981e+01  9.9277184531911061e+01  9.9401274650308366e+01  9.9198831162791365e+01  9.9280059720435972e+01  9.9261366536077645e+01  9.9423863190990090e+01  9.9579351247760570e+01  9.9445525750789315e+01  9.9318962142972566e+01  9.0483551451067740e+01  9.0883124406875098e+01  8.7128983740860193e+01  9.0558030732429486e+01  9.2887532627921814e+01  9.3172239467073510e+01  9.5094060665260997e+01  9.8679844359276871e+01  9.8095969803099038e+01  9.8285819695456254e+01  9.7381993217585716e+01  9.6663940447372951e+01  9.7870295302515999e+01  9.9754555218622684e+01  9.9650846556958825e+01  9.9743181804880066e+01  9.9764206844093053e+01  9.9809574303476523e+01  9.9699527138199528e+01  9.9790063383658392e+01  9.9767193286524318e+01  9.9672321801472989e+01  8.4210376790270132e+01  8.5504953574412554e+01  8.8383666136907436e+01  8.1253931046889448e+01  9.9529307017816450e+01  9.9480202785203360e+01  9.7600402545156498e+01  9.5791746754699602e+01  9.4490706289350541e+01  9.4691793409187781e+01  6.8487293215974958e+01  5.3648117653481343e+01  7.0110665427476931e+01  5.2730065442011984e+01  7.5685887847314561e+01  9.2578076643546723e+01  7.8742870425559062e+01  6.6832202813133463e+01  8.5985108884358809e+01  8.3599839390941383e+01  8.2407277340958515e+01  6.6160318021644656e+01  7.7349893833366124e+01  8.0343550672485421e+01  8.0753659261419813e+01  9.2187134245401154e+01  8.8960456256008413e+01  8.2190887739340724e+01  9.8957984554522625e+01  9.9352571080988170e+01  9.9375911363851429e+01  9.9100185835176731e+01  9.9492264203875507e+01  9.9658519164148942e+01  9.8257548412049758e+01  9.4351911656281601e+01  9.2976996617764286e+01  9.5779782763705342e+01  9.6991001670818022e+01  9.7561120568667221e+01  9.3972387619769620e+01  9.5154416691111265e+01  9.6516524382472269e+01  9.6673157772222041e+01  9.8105788970777567e+01  9.8537016481974348e+01  9.8849907281304212e+01  9.9459356843501197e+01  9.8630363775751803e+01  9.9180103873894652e+01  9.9009675639025986e+01  9.9054326121639377e+01  9.8941511894606521e+01  7.9165101640792258e+01  6.8624352721138422e+01  8.3599216909764507e+01  9.9361507720441580e+01  9.9350652444910139e+01  9.9518073227193824e+01  9.9328774960012140e+01  9.8751417398892116e+01  9.8687737785886100e+01  9.8874215399585964e+01  9.8946866936521090e+01  9.9340003865255895e+01  9.9393867016914172e+01  9.4695047839664170e+01  9.2511709884613026e+01  9.1731184773111607e+01  9.6450777590492990e+01  9.5287924108522049e+01  9.6693557864593103e+01  9.5639464248702069e+01  8.8186772340478583e+01  4.0000000000000000e+01  4.0000000000000000e+01  7.3764621261959917e+01  9.9774706386587653e+01  9.8966127370476173e+01  9.9315583070259834e+01  9.9706937270749705e+01  9.9685446721107624e+01  9.9182666058747145e+01  4.0000000000000000e+01  8.3142092543001226e+01  6.6836408437760255e+01  8.6000458161754707e+01  8.8852309552111180e+01  8.4302918980032814e+01  9.1887907226323009e+01  9.1987052444589253e+01  6.1856262198153431e+01  4.0000000000000000e+01  8.3606664714955926e+01  6.1958815718957709e+01  5.7278274325780075e+01  4.0000000000000000e+01  9.9608318485367505e+01  9.9559495011801829e+01  9.9533418504398810e+01  9.9497571343784102e+01  9.9723577553910431e+01  8.3219340389980971e+01  8.5412698672694276e+01  9.9298977191730771e+01  9.9750994188107072e+01  9.9647949793984949e+01  9.9739901927715735e+01  9.9746217299799056e+01  9.1707811743241763e+01  9.3610059342206824e+01  8.8737463253743783e+01  9.0628320314929425e+01  9.9769401319070610e+01  9.9791342041569322e+01  8.0786570786706520e+01  7.6424097237938000e+01  7.2684746760329872e+01  9.0947908472705052e+01  9.3976880537853035e+01  8.9320493451106202e+01  9.9809422620567673e+01  9.9688038991762795e+01  9.9557456370775313e+01  9.9779511410901947e+01  9.9522213933708187e+01  4.0000000000000000e+01  7.6139621409267562e+01  6.7772385631241093e+01  7.8226889544413979e+01  4.0000000000000000e+01  4.0000000000000000e+01  4.0000000000000000e+01  9.9659114348562781e+01  9.9694326982356756e+01  9.9645207214294558e+01  9.9191820737951673e+01  9.9681370232983056e+01  9.9519196333860990e+01  9.9506505040922889e+01  5.6163650161352386e+01  7.6064745226994532e+01  9.9799145309658670e+01  8.7624403765594252e+01  9.1652537876743764e+01  9.1777296335595111e+01  9.4285777479708116e+01  8.9037745706773521e+01  8.2082495959820704e+01  8.7874267201652231e+01  9.4278159797518626e+01  8.9529534774640027e+01  9.2085069733561966e+01  7.1796793305611033e+01  4.0000000000000000e+01  5.8211201100162704e+01  6.2190889465945617e+01  4.0000000000000000e+01  4.0000000000000000e+01  5.8121267832524858e+01  9.9528768734236252e+01  5.2813721612324677e+01  7.7029059105819286e+01  9.5261557222159155e+01  9.8900168861147719e+01  9.9217592714438311e+01  9.8715726734352543e+01  9.8961877887554479e+01  9.8616076372955447e+01  8.3319931910249309e+01  8.5219209910851816e+01  9.4727661610810387e+01  8.6780203260272259e+01  8.8051328989250322e+01  9.4158810577531270e+01  8.9062716531262211e+01  8.7286693038599239e+01  9.6366848615435146e+01  9.5153122435716497e+01  9.1755585825383662e+01  9.4574883906250562e+01  4.0000000000000000e+01  5.3381913438720971e+01  9.3586659337553442e+01  4.0000000000000000e+01  4.0000000000000000e+01  4.0000000000000000e+01  9.9955051390066686e+01  9.9984661267036230e+01  9.9955886804017169e+01  9.9716144736411934e+01  7.8189563681986201e+01  9.9767301031544321e+01  9.9519758327196712e+01  9.8670481049547902e+01  9.8376095882865584e+01  9.7275267146950299e+01  9.8138325631241059e+01  9.8848374929083093e+01  9.6871391444128918e+01  9.9000002974533430e+01  9.9001485581930666e+01  9.1940359397694607e+01  9.1914268130706304e+01  9.9975667847802569e+01  9.9964540472040269e+01  9.9954037102386593e+01  8.2658836455879765e+01  8.5861895704310442e+01  8.8381339393428391e+01  4.0000000000000000e+01  6.5214118828348361e+01  9.9719238531562283e+01  9.7727144114104249e+01  9.8249974816167054e+01  9.8079609130664423e+01  9.8386003306511512e+01  9.7745529461761407e+01  9.9193470539670400e+01  8.3014927816669328e+01  9.3036637619089703e+01  9.8703907580740676e+01  9.8113280361177758e+01  8.5082927195841066e+01  9.6375145635776747e+01  9.9086831566130044e+01  9.9507879921262813e+01  9.8440066858916055e+01  9.8162850814142431e+01  9.9860242475620268e+01  8.6970951665506718e+01  8.5096581156571304e+01  8.9577947254039799e+01  9.9934989904682340e+01  9.9939536696713475e+01  9.9414287508754697e+01  9.9632574857784405e+01  9.9736000194754638e+01  9.9146506700147569e+01  9.9021174227360376e+01  9.0356270769516982e+01  8.7001560050370301e+01  9.0174451351666718e+01  9.9999966402094032e+01  1.0000399518867269e+02  9.9995111179116819e+01  9.9995106151206940e+01  9.9995050158809292e+01  1.0000014763654700e+02  1.0000210930173230e+02  9.9997157270449705e+01  9.9990679498469959e+01  9.9997985739056688e+01  1.0001268742985643e+02  1.0000332290210817e+02  9.9992600681711181e+01  1.0000201552627486e+02  1.0000077938193496e+02  9.9996853954618359e+01  1.0000559360280630e+02  1.0000130735312690e+02  9.9997385455546919e+01  1.0000166502538386e+02  9.9997040940259012e+01  9.9997913869153820e+01  1.0003645808105358e+02  1.0001546312369402e+02  9.9977148522085244e+01  1.0000073188954566e+02  1.0003009851196992e+02  9.9995276815684505e+01  9.9998963748926428e+01  9.9996532540574890e+01  9.9998221623827618e+01  1.0000059862966005e+02  1.0001532006331476e+02  9.9997395791194251e+01  1.0000090594627831e+02  1.0000024313729297e+02  1.0000089765364118e+02  1.0000934101988918e+02  1.0000002977803446e+02  9.9992761265315352e+01  1.0000134605445963e+02  1.0000252786779858e+02  1.0000229894847236e+02  9.9990304587931391e+01  9.9989824949420921e+01  9.9991803404267742e+01  9.9984111326527582e+01  9.9999774195447742e+01  1.0000470520346948e+02  1.0000218885825839e+02  9.9998981579282898e+01  1.0000625262726466e+02  9.9995584719945967e+01  9.9995003087334752e+01  1.0000156028313270e+02  9.9991016264712997e+01  1.0002699373684477e+02  1.0000089548069636e+02  1.0000212213935720e+02  1.0001216977619883e+02  9.9995634880732410e+01  1.0000470972997346e+02  1.0001070049499459e+02  1.0000217402724437e+02  9.9996381914889497e+01  9.9999755264871041e+01  9.9993615311655958e+01  9.9994832361921624e+01  9.9992594525584565e+01  9.9999597544618794e+01  1.0000236080895623e+02  9.9999681744566217e+01  1.0000014642722920e+02  9.9993942076985306e+01  1.0006738757238242e+02  1.0002840952478712e+02  1.0003858173375399e+02  1.0002127764807599e+02  9.9960581875428971e+01  9.9992226233444157e+01  9.9996284058705129e+01  1.0000035639400409e+02  9.9990979555191586e+01  9.9996682395873748e+01  1.0001351291438803e+02  1.0000360062698250e+02  9.9993099457809009e+01  1.0000037467502307e+02  9.9995941642977144e+01  1.0000038679043107e+02  9.9995630920177362e+01  9.9998697871817001e+01  9.9998090440418778e+01  9.9991986504507324e+01  1.0000254727068896e+02  9.9997754860474018e+01  9.9993763371569145e+01  9.9998301539543391e+01  9.9998718771374882e+01  9.9998617011011589e+01  9.9996889238272104e+01  1.0001089917022573e+02  1.0000270988154848e+02  1.0000753086758777e+02  9.9967078922082834e+01  1.0000083686887517e+02  9.9996660141121779e+01  9.9997503010372981e+01  9.9999412550219517e+01  1.0000732055982182e+02  9.9995801099433123e+01  1.0000011231524691e+02  1.0002160632841692e+02  9.9983116051082490e+01  9.9923501470993585e+01  1.0002398237630426e+02  9.9999681511824647e+01  9.9957810020217110e+01  1.0000016964390386e+02  9.9950539435833889e+01  9.9984796583792843e+01  9.9997842734057073e+01  1.0002875870047602e+02  9.9984445617579055e+01  9.9978367798294713e+01  9.9998021208775441e+01  9.9978947562281490e+01  9.9995622836519331e+01  1.0000030670499928e+02  1.0000583728738368e+02  1.0000570391562194e+02  1.0000094876479702e+02  1.0000474115496530e+02  1.0000168562920473e+02  9.9988304124467419e+01  9.9996662773314952e+01  1.0000256318151013e+02  9.9994232069506438e+01  9.9999951788022003e+01  9.9999954648600905e+01  1.0000644939151331e+02  9.9998767494582793e+01  1.0001264174560235e+02  9.9994514006992389e+01  1.0000583576525619e+02  9.9997130918010257e+01  9.9998485388910865e+01  1.0000145008403554e+02  9.9995058284430613e+01  9.9959443469589615e+01  1.0000871146348680e+02  1.0000925764348050e+02  1.0000865382818479e+02  1.0001388026089521e+02  1.0000249916997277e+02  9.9999454876934379e+01  1.0000188483850826e+02  9.9998337568748312e+01  9.9998182107671056e+01  9.9996833634278019e+01  1.0000585956473569e+02  9.9994672510479973e+01  9.9992864487725299e+01  9.9996510229491321e+01  9.9999412057577729e+01  9.9981958637479494e+01  1.0001021972783273e+02  1.0000297073761229e+02  9.9992007144442098e+01  1.0003296665307406e+02  9.9965409813366776e+01  9.9965614431438226e+01  1.0002253769092619e+02  9.9977868875228708e+01  1.0000388710534676e+02  9.9996512397071612e+01  1.0000766658928056e+02  9.9999830687525318e+01  9.9999904393437376e+01  1.0000049698365686e+02  9.9999993306624916e+01  1.0000010224295286e+02  9.9999901638655359e+01  1.0000007835476212e+02  1.0000007742702677e+02  9.9999763412664350e+01  1.0000040817915936e+02  9.9989227135928701e+01  1.0001262818158619e+02  9.9998728675542068e+01  9.9986145856322608e+01  9.9998124642870081e+01  1.0000732120084815e+02  9.9984554285842293e+01  9.9998590554077140e+01  9.9961627978109519e+01  9.9980063663129613e+01  9.9994266819154262e+01  9.9984687053649381e+01  1.0000605383568939e+02  1.0004999211828350e+02  9.9978417491711767e+01  1.0001728478782582e+02  1.0003478551874839e+02  9.9999329166640464e+01  9.9992918658141676e+01  9.9996484603230272e+01  9.9996255098717413e+01  9.9988753693725741e+01  1.0000071447335573e+02  1.0002653579850438e+02  1.0000897748901613e+02  9.9997901601392599e+01  1.0000534033675810e+02  9.9999477678464203e+01  9.9996032097026799e+01  9.9999707607892205e+01  9.9997451404891478e+01  9.9999859250966864e+01  1.0000056703147111e+02  1.0000009836617777e+02  1.0000025635355810e+02  1.0000010813896085e+02  1.0000025521159529e+02  9.9998134443262302e+01  1.0000084672257148e+02  9.9991788919829133e+01  1.0000076076427571e+02  1.0000844988748034e+02  9.9993190368294776e+01  1.0000197416273792e+02  9.9979301884347379e+01  1.0000117032965115e+02  1.0000017810130613e+02  9.9998044704243341e+01  9.9999928379648281e+01  1.0000211216145078e+02  1.0000198519745898e+02  9.9998230406573953e+01  1.0000184210864619e+02  1.0000024320166406e+02  9.9937723956897017e+01  9.9971773861428943e+01  9.9999489681611522e+01  1.0000455850828176e+02  9.9998828079984946e+01  9.9999328835470919e+01  9.9989562782070607e+01  9.9997992247166664e+01  9.9991906528819541e+01  9.9998621933979948e+01  9.9999835838381557e+01  9.9991630107624189e+01  9.9997561674281997e+01  9.9999977600853470e+01  1.0000854079096463e+02  9.9996376370155303e+01  9.9974985859040501e+01  9.9991081620462211e+01  9.9993865780892818e+01  1.0000470210880312e+02  9.9990727310505065e+01  1.0000478772389621e+02  9.9999465137835699e+01  1.0000175597786175e+02  9.9988284922416142e+01  9.9978825734991801e+01  1.0001095376218079e+02  9.9981084659891266e+01  9.9969878557313677e+01  9.9997466341536182e+01  1.0001391954141749e+02  9.9978718692428245e+01  1.0000305460676363e+02  1.0000185991421425e+02  9.9995639571648709e+01  9.9996123442643650e+01  9.9996836026075130e+01  9.9999468576181428e+01  9.9998320359124776e+01  9.9998507320646866e+01  9.9999574653885702e+01  1.0000057171427547e+02  9.9998246606853996e+01  9.9998788221432577e+01  9.9999529021456283e+01  9.9999475603946919e+01  9.9996845178416891e+01  9.9997708079545959e+01  9.9993211429135400e+01  9.9993271132729021e+01  9.9992846488467393e+01  9.9979888267873790e+01  9.9990508499580088e+01  1.0000000203049954e+02  9.9997027396088171e+01  9.9993521080305769e+01  1.0000725221936926e+02  9.9995338717322696e+01  1.0000065263761125e+02  9.9998256979824404e+01  9.9992779393283271e+01  9.9978345476209299e+01  1.0001700440902830e+02  1.0000180843294227e+02  9.9993566367258850e+01  9.9993116131777171e+01  1.0000224082083453e+02  9.9997026974693043e+01  1.0000168199491782e+02  9.9999225682125413e+01  1.0000009014531454e+02  1.0001553443121465e+02  1.0002338569223598e+02  1.0001832799513441e+02  1.0001337634338985e+02  1.0000232266213165e+02  1.0000105984987279e+02  9.8318129742132541e+01  9.6171057542555275e+01  9.7119587903457571e+01  9.5153227289923393e+01  9.7177463954620436e+01  9.6791535848330525e+01  9.6423414437644254e+01  9.9983977274712316e+01  9.9971531016701974e+01  9.9968044328259410e+01  9.9981257448486701e+01  1.0004440920771357e+02  9.9963551783575568e+01  9.9986743719139795e+01  9.9970409351442754e+01  1.0000469240658306e+02  1.0000485008893277e+02  1.0000775769412161e+02  1.0002074385372536e+02  9.9995292477178538e+01  1.0000274039770018e+02  9.9996030749854114e+01  9.9961630265891074e+01  9.9995010762275285e+01  9.9998661001239398e+01  1.0000020505144516e+02  9.9999689714591923e+01  9.9997965541410906e+01  9.9994323472294042e+01  1.0002228945730637e+02  1.0003598461627865e+02  1.0000322795868102e+02  1.0000152134698075e+02  1.0000326049927661e+02  9.9999350202145948e+01  1.0000374908901190e+02  9.9996605445955069e+01  1.0000077948253212e+02  1.0000042155982682e+02  1.0000205463404031e+02  1.0000056174652497e+02  1.0000247260655568e+02  1.0000204947773625e+02  9.9973784779941070e+01  1.0001113078088184e+02  1.0002741743700891e+02  1.0000323427588940e+02  1.0000190971525514e+02  9.9994384441540518e+01  9.9997304363798079e+01  9.9997440276367669e+01  9.9994825390551597e+01  9.9993346956126373e+01  9.9999006936174098e+01  1.0001954717373066e+02  1.0000366986427046e+02  1.0001036025073796e+02  1.0002912237853648e+02  1.0000247241324728e+02  9.9997835567568501e+01  9.9989127328518435e+01  1.0004180527472757e+02  1.0001926792246539e+02  9.9976657191761461e+01  9.9982845865676410e+01  9.9983361323914167e+01  9.9989877525398171e+01  1.0000093227476111e+02  9.9994906669325857e+01  1.0000047137520257e+02  9.9992733211117496e+01  9.9997622424072915e+01  9.9994135879574145e+01  9.9987622081927256e+01  1.0000216841960771e+02  1.0000076784523814e+02  1.0000598896418504e+02  1.0000938436630442e+02  1.0000495200610577e+02  1.0000187234503805e+02  9.9989368690288728e+01  1.0000349164601221e+02  9.9994412185489168e+01  1.0000440979971131e+02  1.0000116923196229e+02  1.0000122589035429e+02  1.0001483793316477e+02  1.0001315932145802e+02  9.9975381577754248e+01  9.9990002212200210e+01  1.0000830640204799e+02  1.0000738844649842e+02  1.0000454541721109e+02  9.9999294770287662e+01  1.0000005332777232e+02  1.0000019815699001e+02  9.9999934057277045e+01  9.9999032740584951e+01  9.9988407561695539e+01  1.0000073874007875e+02  9.9995126128789622e+01  9.9965562133165818e+01  1.0000963335839315e+02  1.0002157635942397e+02  9.9994930593750055e+01  9.9993337159002394e+01  1.0001649825115166e+02  9.9999316750127377e+01  1.0000220873434910e+02  1.0000036971097343e+02  9.9999871545602318e+01  9.9998564317999282e+01  9.9992199595482049e+01  9.9997784103617278e+01  1.0000842158681743e+02  9.9999011203098618e+01  1.0001407479988757e+02  9.9999183989652536e+01  9.9970589277255414e+01  1.0000374721627121e+02  1.0002086015442711e+02  1.0000766406114788e+02  9.9991995063736809e+01  9.9990022108127576e+01  1.0000491527312337e+02  1.0001303292146704e+02  9.9996646331361021e+01  1.0000506689415781e+02  9.9996216120819085e+01  9.9997294534781233e+01  9.9995318622100399e+01  1.0000243019110913e+02  9.9922773810654448e+01  9.9987321287616737e+01  1.0000644034635859e+02  9.9999763262396911e+01  9.9992352341980933e+01  1.0000478193016821e+02  9.9992998120550226e+01  1.0000418151815165e+02  9.9985970050685395e+01  1.0000395435584188e+02  9.9998620253419645e+01  9.9998248579118965e+01  1.0001915581913882e+02  9.9999789852683463e+01  9.9996325688179866e+01  1.0002060464962126e+02  9.9987165334164189e+01  1.0000078092606931e+02  9.9994770015111826e+01  1.0000204598968877e+02  1.0000147465835909e+02  9.9999713726075726e+01  9.9991088255863559e+01  9.9985571296578954e+01  9.9971090188287874e+01  1.0001290099928141e+02  9.9934080313548591e+01  1.0000319602276434e+02  9.9987674925429673e+01  1.0000251584197700e+02  9.9998522966138154e+01  9.9952512657446619e+01  9.9967456754385935e+01  9.9995524722424037e+01  1.0000184921009634e+02  9.9998061648074454e+01  1.0000550717696296e+02  9.9994751079745868e+01  1.0000026772342990e+02  9.9998684795520873e+01  9.9999434484152360e+01  9.9999964641966827e