<?xml version="1.0"?>
<VTKFile type="UnstructuredGrid"  version="0.1"  >
<UnstructuredGrid>
<Piece  NumberOfPoints="17706" NumberOfCells="82996">
<Points>
<DataArray  type="Float64"  NumberOfComponents="3"  format="ascii">37.49216068403028 12.21648981040125 8.095694586986866  38.32857882343121 12.76088951826553 7.662516863849856  37.72596752893017 12.2500195962564 7.546906245750904  37.67538188048195 12.78230404265796 7.710752303809349  38.09477197853133 12.72735973241038 8.211305205085818  38.69738327303237 13.23822965441951 8.32691582318477  38.27799317498299 13.29317396466709 7.8263629219083  37.85860307693361 13.34811827491466 7.325810020631831  37.90918872538183 12.8158338285131 7.161963962573386  37.95977437383005 12.28354938211154 6.998117904514942  36.79878997802734 9.262807846069336 1.688738942146301  37.32069326716318 9.333729389357142 1.294572145291262  37.25862847739209 9.61936321761161 1.665707308905719  36.86208273249521 9.471778038191371 1.401003093071871  37.25740051269531 9.124759197235107 1.582307994365692  37.71601104736328 8.986710548400879 1.475877046585083  37.71723901206006 9.481314568777382 1.55927636112511  36.92537548696308 9.680748230313407 1.11326724399744  37.32192123185995 9.828333409733647 1.377971459831289  37.71846697675683 9.975918589153887 1.642675675665137  39.01948928833008 10.41880989074707 4.076076984405518  39.12393159979191 10.71591591793173 3.516412914395175  38.81026210352705 10.41138852638027 3.623369851082657  39.45682525634766 10.48663473129272 3.584073543548584  39.89416122436523 10.55445957183838 3.09207010269165  39.56126756780949 10.78374075847739 3.024409473538242  39.24759807154463 10.47921336692593 3.131366410225723  38.60103491872403 10.40396716201348 3.170662717759796  38.91470441498889 10.70849455356493 3.063705781072314  39.22837391125374 11.01302194511639 2.956748844384833  30.15699005126953 6.171529769897461 1.042019009590149  30.19187086922878 6.947148783711171 1.224238525604145  29.97421153999711 6.799382792124219 0.9095689798347172  30.41346750847595 6.514499027188792 0.9445114579989207  29.93539341202236 6.60417952641984 1.321746077195373  29.71379677277519 7.036829282942218 1.601473144800597  29.75261490074995 7.232032548646598 1.189296047439941  30.66994496568236 6.857468284480124 0.8470039064076924  30.23068899720353 7.142352049415551 0.8120614282434889  29.7914330287247 7.427235814350977 0.7771189500792854  36.74039077758789 10.16604995727539 0.1048400029540062  36.84578209468074 10.03015680125121 0.8070672540779583  36.63945054382354 9.819691187879625 0.6458232473078618  36.51377057403594 10.07819677068907 0.5009334958586344  36.86607074737549 9.907544374465942 0.2497297544032335  37.0724022982327 10.11800998783753 0.4109737611733301  36.99175071716309 9.649038791656494 0.3946195058524609  37.19808226802029 9.859504405028078 0.5558635126225574  36.28715037048399 9.990343584102757 0.8970269887632627  37.4044138188775 10.06997001839966 0.7171075193926539  29.75470075791016 8.598431516861204 1.322980872051198  30.06714893555393 8.63638926845141 2.330886720141523  29.65537917915002 8.315080225449282 1.834347476450712  29.76529804247252 8.861228610347506 2.07710591612001  30.16647051431407 8.919740559863333 1.819520115742009  30.57824027071799 9.241049602865463 2.31605935943282  30.17706779887643 9.182537653349634 2.573645159810821  29.77589532703487 9.124025703833807 2.831230960188823  29.66597646371238 8.577877318935583 2.588472520519525  29.55605760038988 8.031728934037359 2.345714080850227  34.21928829129851 12.64002394638204 1.355772822332426  34.6433209036302 13.02752186071445 2.375452396717719  34.02509089041567 13.17507725383906 2.421098060884977  34.13534608042709 13.22252349583151 1.712030072888084  34.75357609364163 13.0749681027069 1.666384408720825  34.10903310128708 12.59257770438958 2.06484081032932  33.99877791127566 12.54513146239713 2.773908798326214  34.05140386955567 13.80502304528099 2.06828732344374  34.6696338827702 13.65746765215637 2.022641659276482  35.28786389598474 13.50991225903176 1.976995995109223  38.59587860107422 9.887117385864258 7.719407081604004  37.95599753934775 10.23163860221262 8.072740517776943  38.17576293870272 9.752457963769956 7.998655237335422  38.10858005983224 10.1625982174695 7.686196974237862  38.44329608058973 9.956157770607378 8.105950625143084  38.29071356010524 10.0251981553505 8.492494168682166  38.02318041821823 9.821498348513078 8.385198780874504  37.62128151859026 10.43807904907475 7.65298686687172  37.68846439746074 10.0279387953752 7.96544512996928  37.75564727633122 9.617798541675656 8.27790339306684  36.82065527882757 14.70724381072298 11.77208122874694  35.95667240113505 15.14332609287119 11.06510919625685  36.38838726446482 14.95211635620788 10.99255675399395  36.06241542111663 14.59409182667349 11.30339300904417  36.714912258846 15.25647807692069 11.53379741595961  36.60916923886442 15.80571234311839 11.29551360317229  36.28264424448324 15.50135062240559 10.75427294120662  35.30417556340569 14.48093984262399 10.83470478934141  35.63014740675388 14.83896437215839 10.52386853429118  35.95611925010207 15.19698890169278 10.21303227924096  38.49338912963867 12.95320987701416 5.418471813201904  38.66875169905117 12.54496232300814 5.847685287167121  38.41373537214687 12.90735713273104 5.784030149151373  38.8133487701416 12.95629501342773 5.69372034072876  38.74840545654297 12.59081506729126 5.482126951217651  39.13330841064453 12.95938014984131 5.968968868255615  39.0683650970459 12.59390020370483 5.757375478744507  38.7336950126498 12.91044226914462 6.059278676678229  39.00342178344727 12.22842025756836 5.545782089233398  38.33408161465507 12.86150438844792 6.149588485100842  36.33905029296875 9.754186630249023 2.356865882873535  36.59864377632354 10.29588838310869 2.089588760314625  36.14187007741198 9.955249658266652 2.11031547066369  36.33813827211476 10.31319352739227 2.43404297534956  36.79582399188031 10.09482535509106 2.33613917252447  37.25259769079187 10.4354640799331 2.315412462175406  36.79491197102632 10.65383225223431 2.413316265000495  36.33722625126077 10.87220042453551 2.511220067825584  36.14095805655799 10.5142565554099 2.187492563139715  35.94468986185522 10.15631268628428 1.863765058453845  33.66947937011719 3.937901020050049 4.193717002868652  33.77516909647022 4.354825682761933 3.934709744620258  33.9167823305244 4.473236940648135 4.372771139583444  34.0707893371582 4.022398471832275 4.1573805809021  34.47209930419922 4.106895923614502 4.121044158935547  34.17647906351124 4.43932313454416 3.898373322653705  34.31809229756541 4.557734392430362 4.336434717616891  34.16408529093161 5.008572861246223 4.551825276298236  34.02247205687743 4.890161603360021 4.11376388133505  33.88085882282325 4.771750345473817 3.675702486371863  35.06922912597656 4.482101917266846 5.859911918640137  34.1694694300181 4.736150784136228 6.107641859670382  34.72836243755774 5.053163549538163 5.735248450463451  34.52435307313857 4.53643243185795 5.671452705485214  34.71434548285609 4.681820269545124 6.296101072825306  34.35946183973562 4.881538621823403 6.732290227010475  34.37347879443728 5.252881901816442 6.17143760464862  33.97947702030058 4.590762946449053 5.48299349233029  34.18348638471975 5.107494064129266 5.546789237308527  34.38749574913892 5.62422518180948 5.610584982286765  32.71181704407387 6.344657647902548 6.532548241273835  32.39512116785005 5.394968810150809 6.373814841063145  32.62921731967133 5.627597506798914 6.052610282237682  32.92790556339239 5.744581206717172 6.516634053258328  32.17903264853153 5.995045251336187 6.389729029078651  31.6462482529892 5.645432854769825 6.246909816883468  32.09643292412899 5.277985110232552 5.909791070042498  33.14399408271091 5.144504765531794 6.500719865242822  32.84530583898985 5.027521065613536 6.036696094222176  32.54661759526879 4.910537365695279 5.572672323201529  34.95782089233398 4.765946865081787 4.135313987731934  34.43845912027393 5.056424088599946 3.606681780981952  34.89792442321777 4.878175497055054 3.429216027259827  34.87880516052246 4.59060001373291 3.728042483329773  34.41933985757862 4.768848605277802 3.905508237051898  34.9769401550293 5.053522348403931 3.836487531661987  34.99605941772461 5.341097831726074 3.537661075592041  34.79978942871094 4.415253162384033 3.320770978927612  34.3403241257671 4.593501753928925 3.498236732649738  28.76135063171387 5.556865215301514 2.946438074111938  28.5943642515035 6.507040721478779 3.021362030466229  29.02806989143777 6.135157251753053 2.858026310583651  29.00119534920144 5.962139749921999 3.188794299742282  28.7882251739502 5.729882717132568 2.615670084953308  28.35451953401593 6.101766186858294 2.779005804835886  28.81509971618652 5.902900218963623 2.284902095794678  28.38139407625226 6.274783688689348 2.448237815677255  29.24104006668901 6.367414284542483 3.431150525372625  27.947688436318 6.646667158415074 2.611573535559833  39.89416122436523 13.85678958892822 11.46578979492188  39.66260329515359 13.46229105753362 11.1852707077534  39.89416122436523 13.45230960845947 11.13778972625732  39.89416122436523 13.49068975448608 11.55015468597412  39.89416122436523 13.12458992004395 11.63451957702637  39.66260329515359 13.09619122309148 11.26963559880565  39.89416122436523 13.08620977401733 11.22215461730957  39.89416122436523 13.04782962799072 10.80978965759277  39.66260329515359 13.05781107706487 10.85727063908885  39.43104536594193 13.06779252613901 10.90475162058492  30.50325965881348 5.991970062255859 2.06486701965332  30.96790045048543 6.23331049704208 1.512488975484493  30.58660231224792 6.424719173367992 1.455935463030506  30.77675437927246 5.947262525558472 1.563378512859344  31.05024909973145 5.902554988861084 1.061890006065369  31.24139517094441 6.188602960344692 1.011000468690517  30.8600970327069 6.380011636670604 0.9544469562365305  31.05124310391987 6.666059608154212 0.9035574188616791  31.43254124215738 6.474650931828301 0.9601109313156658  39.13047027587891 15.0416402816
[...]
<PointData  Scalars="p_O2"> 
<DataArray  type="Float64"  Name="p_O2"  format="ascii">1.0019333313226686e+02  1.0030580184117765e+02  1.0022172483689660e+02  1.0021284778432143e+02  1.0027154487288563e+02  1.0032543022007856e+02  1.0027660855937178e+02  1.0020901961250865e+02  1.0022867795562065e+02  1.0023321979677098e+02  1.0002171969996553e+02  1.0005959332393647e+02  1.0008380445001987e+02  1.0004960073914916e+02  1.0005644680788983e+02  1.0004981328337871e+02  1.0010152836681937e+02  1.0005983016740453e+02  1.0010375446878680e+02  1.0017280615499365e+02  1.0013818539388443e+02  1.0049056053545787e+02  1.0028740276899643e+02  1.0028426536177717e+02  1.0579274577517901e+02  1.0181414364293788e+02  1.0073393948306479e+02  1.0043852910507849e+02  1.0082891656851103e+02  1.0127708325987911e+02  9.9989426563405601e+01  9.9996159152590721e+01  9.9983926574421844e+01  1.0001033092469534e+02  9.9988149983063380e+01  9.9992990121967168e+01  9.9992535210979355e+01  9.9997209954874023e+01  1.0001049420829851e+02  9.9993585066881678e+01  1.0001283382461689e+02  1.0005852827728071e+02  9.9999499231578397e+01  1.0001768707628553e+02  1.0001044449616194e+02  1.0005406541029511e+02  1.0003793611294545e+02  1.0009139383835745e+02  1.0003688896640105e+02  1.0008012534020064e+02  1.0000137984363715e+02  1.0000910660912120e+02  1.0000186317243640e+02  1.0000304103086535e+02  1.0000760205669980e+02  9.9997176352654918e+01  9.9993723145640061e+01  1.0000203922328633e+02  9.9993300820804322e+01  1.0000137114086395e+02  1.0002062860371191e+02  1.0004553109780679e+02  1.0001966127810574e+02  1.0002272947684649e+02  1.0004133971697972e+02  1.0001885599280055e+02  1.0001294108534923e+02  1.0002513882695806e+02  1.0003236143970378e+02  1.0005907084837671e+02  1.0007893320921326e+02  1.0014831503204475e+02  1.0010599976150499e+02  1.0012662999348358e+02  1.0013893965389255e+02  1.0018796771342491e+02  1.0013506541228911e+02  1.0011785484582893e+02  1.0010773664623437e+02  1.0010668981268012e+02  1.0009381537994206e+02  1.0005980081613195e+02  1.0008462799936969e+02  1.0006249432743263e+02  1.0008234917490154e+02  1.0006424222079590e+02  1.0006867680265682e+02  1.0004265481026567e+02  1.0005204468452838e+02  1.0006296509787191e+02  1.0009917452739053e+02  1.0020176515633224e+02  1.0014297571857433e+02  1.0010294677262469e+02  1.0009978768784578e+02  1.0018007840968600e+02  1.0016180846832992e+02  1.0022518009254968e+02  1.0018544593618380e+02  1.0019289034012914e+02  9.9991332655676629e+01  1.0007972777919854e+02  1.0003200795168793e+02  1.0005601764078386e+02  1.0010203870204774e+02  1.0015750914616204e+02  1.0012242809766887e+02  1.0008827823134453e+02  1.0006670640001840e+02  1.0004087403383694e+02  1.0000293765501735e+02  1.0000228322372642e+02  9.9998963477877538e+01  9.9998549733472160e+01  9.9998775323311648e+01  1.0000115651946670e+02  9.9999580892852975e+01  1.0000080491537506e+02  9.9999806363840406e+01  1.0000195941496224e+02  9.9996240823337232e+01  1.0000044523622310e+02  9.9996930914297550e+01  9.9999265823441533e+01  1.0000148558880176e+02  1.0000243211130714e+02  1.0000250003599584e+02  1.0000104769779647e+02  1.0000272492465393e+02  1.0000125918430561e+02  9.9999388714600698e+01  9.9999965216049375e+01  1.0000454745258357e+02  1.0000187366682265e+02  9.9999306713969986e+01  1.0000598144690714e+02  9.9996188414520589e+01  1.0000171717466229e+02  1.0000256916974972e+02  9.9997779478525032e+01  9.9988466300107959e+01  1.0000088020887439e+02  1.0000081136516479e+02  9.9999342592377019e+01  1.0000182867190898e+02  1.0000180474524214e+02  9.9995084524769354e+01  9.9993861635353269e+01  1.0000054721040343e+02  9.9997458498749609e+01  9.9994728729619482e+01  9.9994898516478997e+01  9.9995743020189025e+01  1.0001004363485924e+02  1.0000192240116424e+02  1.0000432118795698e+02  1.0000061016908573e+02  1.0000099161339114e+02  1.0000273188264971e+02  1.0052528611813604e+02  1.0046984815675910e+02  1.0046010814511108e+02  1.0059006848792504e+02  1.0060354373641667e+02  1.0048354799984079e+02  1.0047032496842776e+02  1.0040221111517040e+02  1.0041207597032692e+02  1.0041459751996317e+02  1.0001497022394609e+02  9.9990839049522677e+01  1.0002195879399336e+02  1.0001095298059604e+02  1.0002393897362704e+02  1.0000259347831620e+02  9.9995772510280489e+01  9.9995176677166057e+01  9.9999804173842591e+01  1.0008424060042276e+02  1.0030982629782471e+02  1.0020021641866587e+02  1.0015706451753668e+02  1.0028041921712503e+02  1.0022810673586032e+02  1.0030623093151119e+02  1.0010824037795651e+02  1.0020095434797879e+02  1.0030121069261733e+02  9.9994831739120528e+01  1.0000967504049756e+02  1.0000152501870379e+02  9.9994992454513238e+01  1.0000229242567153e+02  1.0000014627361614e+02  1.0000091153349335e+02  1.0000451828028852e+02  9.9999428099886430e+01  1.0000044551507779e+02  1.0019090728574578e+02  1.0050500631062779e+02  1.0048581050012734e+02  1.0061494202426272e+02  1.0020409403279248e+02  1.0023810095667143e+02  1.0017461645686232e+02  1.0017664835803400e+02  1.0017379600981265e+02  1.0076975039973522e+02  1.0001379381425299e+02  1.0001917795237868e+02  1.0001425142466084e+02  1.0002144996914458e+02  1.0003512724456520e+02  1.0003125490228648e+02  1.0002989704953943e+02  1.0001696878978979e+02  1.0002217775343289e+02  1.0002566587573664e+02  1.0000022360887615e+02  1.0000005934995549e+02  1.0000150608295252e+02  1.0000001916942395e+02  1.0000078528106063e+02  1.0000167922641714e+02  1.0000048846637705e+02  1.0000084641790508e+02  1.0000378371365123e+02  1.0000172801118352e+02  1.0008111987463835e+02  1.0003518989747631e+02  1.0006151980029479e+02  1.0003120895190713e+02  1.0004135840528990e+02  1.0003511674488210e+02  1.0003848825459440e+02  9.9990877900892940e+01  1.0000152391793965e+02  1.0000155322046896e+02  1.0000315686810977e+02  1.0000809123732631e+02  9.9994205274808891e+01  1.0000031290584835e+02  1.0000414330661422e+02  9.9999438659972483e+01  1.0000584765708044e+02  1.0000106411355752e+02  9.9998773935937791e+01  9.9987434191705375e+01  1.0001550923246133e+02  9.9988636137917652e+01  9.9998601342496556e+01  1.0000267696575533e+02  9.9999672243505429e+01  9.9999504619419980e+01  1.0000021074230932e+02  9.9998221382458937e+01  1.0000104975706874e+02  9.9999515911581128e+01  1.0000047630385949e+02  1.0000072501736345e+02  1.0000166662472738e+02  9.9998667706419738e+01  1.0000866259066900e+02  1.0000503020865249e+02  1.0001105020974239e+02  9.9992404100122812e+01  1.0001028779806794e+02  9.9983941984635976e+01  1.0001246577513405e+02  1.0001120588852503e+02  1.0000504513022115e+02  1.0000820112948595e+02  1.0000002525335415e+02  1.0000323211700970e+02  9.9996787654345553e+01  9.9997468301205018e+01  1.0000236698894400e+02  9.9997088746541721e+01  9.9995420053414435e+01  9.9998226208940167e+01  1.0000165290462418e+02  1.0000098662840018e+02  9.9995351979085967e+01  9.9996453216316269e+01  1.0000918911878988e+02  9.9998054883054223e+01  1.0000295696852612e+02  1.0000295539623393e+02  9.9999379925858605e+01  9.9999042224241009e+01  9.9997601088318788e+01  1.0000222952592215e+02  9.9996927194570262e+01  1.0001060647793308e+02  1.0000480291011831e+02  1.0000530590420475e+02  1.0000485188296845e+02  1.0000893436848578e+02  1.0001426067017728e+02  1.0000404733569950e+02  1.0000943356543431e+02  1.0000489144386680e+02  9.9984176537873950e+01  9.9995719804581057e+01  1.0000927424652538e+02  9.9969306256328196e+01  1.0000102876905815e+02  1.0001762969132864e+02  9.9991991898156016e+01  9.9999381750155180e+01  1.0000554856796094e+02  1.0030150196557828e+02  1.0030572515112932e+02  1.0024872586950482e+02  1.0025029234831186e+02  1.0038186770336293e+02  1.0055039117897574e+02  1.0019957643783933e+02  9.9999482738889526e+01  9.9986177781365768e+01  9.9996083981935826e+01  9.9998267429317238e+01  1.0000848637516800e+02  9.9997476762849516e+01  1.0000332631102513e+02  1.0000177477638495e+02  9.9996143002022791e+01  1.0004311993538246e+02  1.0013447548778481e+02  1.0011528033916566e+02  1.0014884178603751e+02  1.0002339933875542e+02  1.0002285197074228e+02  1.0018939564802217e+02  1.0029705644989137e+02  1.0020716079657919e+02  1.0014727724275366e+02  1.0742808203630834e+02  1.0089572404262547e+02  1.0061865717319397e+02  1.0123304739591411e+02  1.0699070610950653e+02  1.0040742905302463e+02  1.0042527873831716e+02  1.0129268488281110e+02  1.0593119871501543e+02  1.0032943640183906e+02  1.0007015444949521e+02  1.0000004766734287e+02  9.9949505194612158e+01  1.0005078635496650e+02  9.9984691872766774e+01  9.9980965524368315e+01  1.0003070595183600e+02  9.9997294809097880e+01  1.0001066433054382e+02  9.9998127444300266e+01  1.0038127749617334e+02  1.0058929747576282e+02  1.0047104981631210e+02  1.0066972485745626e+02  1.0040458419429503e+02  1.0183232239667812e+02  1.0064836657259849e+02  1.0087261796226585e+02  1.0051367922115917e+02  1.0047668822128867e+02  1.0001433537861061e+02  1.0000663339157383e+02  9.9988723286277661e+01  9.9995485158719404e+01  1.0000926067143835e+02  1.0001583615632917e+02  1.0000707094427989e+02  1.0000559366580379e+02  1.0000802790561301e+02  1.0000687202066540e+02  9.9997111026988776e+01  1.0000343610034454e+02  9.9994236939046800e+01  9.9996756666077971e+01  9.9993208596352545e+01  9.9997433058535634e+01  9.9997441853853942e+01  9.9995704860632699e+01  1.0000072003773803e+02  1.0004961062026938e+02  1.0014240140566855e+02  1.0007814744658999e+02  1.0008306209026284e+02  1.0011276056971491e+02  1.0017715248334471e+02  1.0007490418191034e+02  1.0007197969376183e+02  1.0013558825077831e+02  1.0022958206421509e+02  1.0000257425884293e+02  9.9989944052484461e+01  9.9998847884615429e+01  9.9998140942085712e+01  1.0000339828958704e+02  1.0001729855689477e+02  9.9986287803375689e+01  1.0001624490612353e+02  9.9975749952760140e+01  1.0000143225751954e+02  1.0000342241840747e+02  1.0001502406288196e+02  1.0001028200858119e+02  1.0000812910778663e+02  1.0000845151569305e+02  1.0000311679091307e+02  1.0000527412011665e+02  1.0000352965366902e+02  1.0000571306691812e+02  1.0001428578975275e+02  1.0000046281861690e+02  1.0000034163303647e+02  9.9999148881244295e+01  1.0000035748859769e+02  1.0000181411227062e+02  1.0000042476753224e+02  1.0000117137162218e+02  1.0001976479456263e+02  1.0001228314749773e+02  1.0001659249309144e+02  1.0002195436795925e+02  1.0001560060057068e+02  1.0001554171079756e+02  1.0001633363785763e+02  1.0001380932639279e+02  1.0000931251020938e+02  1.0001364796027684e+02  1.0000260865976567e+02  9.9998912918338547e+01  9.9996656316642571e+01  1.0000136698271979e+02  1.0000053141110078e+02  9.9999138148667697e+01  9.9999474935653552e+01  9.9999404762381573e+01  9.9998854021678014e+01  9.9999235710897409e+01  1.0000621620600025e+02  1.0001171181167085e+02  1.0000079088118036e+02  1.0001394967694364e+02  1.0000162948314475e+02  1.0000360873024164e+02  1.0000832750337646e+02  9.9969058195363530e+01  1.0011219536950038e+02  1.0010178857604990e+02  1.0008274432446463e+02  1.0002782042797188e+02  1.0007327710424134e+02  1.0001575459136575e+02  1.0006146265713863e+02  1.0009830422218243e+02  1.0010203332410777e+02  1.0001653588654156e+02  1.0000861477647840e+02  1.0001397408273702e+02  1.0000493800008310e+02  1.0001579600431631e+02  1.0000599707086471e+02  1.0000844990835081e+02  1.0001134467237749e+02  1.0000650316366549e+02  1.0001073339923445e+02  9.9990665584822082e+01  1.0000186447888782e+02  1.0000813121262479e+02  9.9993685399236000e+01  1.0000621513401771e+02  9.9996162854504760e+01  1.0000547499282069e+02  1.0000229458923077e+02  1.0023310584906598e+02  1.0026333708688152e+02  1.0024979799297685e+02  1.0060213807271882e+02  1.0061089375042010e+02  1.0054500939885261e+02  1.0053022537871405e+02  1.0025960643617853e+02  1.0029536134516457e+02  1.0012133592071709e+02  1.0008852787434267e+02  1.0011352722053279e+02  1.0008359182977044e+02  1.0012280214365805e+02  1.0010725735454598e+02  1.0009947266799583e+02  1.0007831762381154e+02  1.0009601552065367e+02  1.0007631910742263e+02  1.0000150175908421e+02  1.0002194078973619e+02  1.0003117595259044e+02  1.0001682662222383e+02  1.0000819217555234e+02  1.0000606376981023e+02  1.0000176211154198e+02  1.0001752423110247e+02  1.0001442271318167e+02  1.0049428202808923e+02  1.0082728227773043e+02  1.0091784945123170e+02  1.0138160861385438e+02  1.0053371472813130e+02  1.0146617372588578e+02  1.0151404006446946e+02  1.0103542840844803e+02  1.0046947144586267e+02  1.0000024290542841e+02  9.9999792746586820e+01  9.9998295278816897e+01  9.9997712802625486e+01  1.0000182960526301e+02  9.9998068210859643e+01  1.0000191926838302e+02  9.9997148806100682e+01  9.9998863052279276e+01  1.0011705111285657e+02  1.0007447694671846e+02  1.0009958517070045e+02  1.0007489946686354e+02  1.0009147736465277e+02  1.0003510382147844e+02  1.0004872747848492e+02  1.0005323897117860e+02  1.0007476703528320e+02  1.0006268031321579e+02  9.9994703846084931e+01  1.0002718617771897e+02  1.0000649221781337e+02  1.0000651564703460e+02  9.9989189714295321e+01  1.0002160195515188e+02  1.0000862497088383e+02  1.0023240048346489e+02  1.0017721174113711e+02  1.0023719828297394e+02  1.0023892032474042e+02  1.0020049292325250e+02  1.0015459966951855e+02  1.0019209516239037e+02  1.0016131178260292e+02  1.0015911368114121e+02  1.0011614505790433e+02  1.0042578204309257e+02  1.0056885284112549e+02  1.0052108211949138e+02  1.0043442438648702e+02  9.9993696296038138e+01  9.9994770337400212e+01  9.9997397208178441e+01  1.0001346555602558e+02  9.9996350345306425e+01  9.9971075356025565e+01  1.0006627725735551e+02  9.9982393681863357e+01  9.9966689678177701e+01  9.9998523915996159e+01  1.0000202648661237e+02  1.0000046318698384e+02  9.9992923843340392e+01  9.9987014291410460e+01  1.0000515910090118e+02  9.9985994674372222e+01  9.9996010930216286e+01  1.0000061979744206e+02  9.9998821405012777e+01  1.0012756280884828e+02  1.0016637008175530e+02  1.0012579912024854e+02  1.0015704982187542e+02  1.0014497743112049e+02  1.0010709740304031e+02  1.0012926392602481e+02  1.0013422897876454e+02  1.0019600923524064e+02  1.0000489995318650e+02  9.9999160096139278e+01  1.0000449606110347e+02  1.0000183108546722e+02  1.0052690676457618e+02  1.0079225176690593e+02  1.0062411261636500e+02  1.0052190539413796e+02  1.0003393516301104e+02  1.0003752293042392e+02  1.0001925446371133e+02  1.0002455411826783e+02  1.0000887522402992e+02  1.0003672726351471e+02  1.0006976375071717e+02  1.0004971449765698e+02  1.0003564546086255e+02  9.9908405437121090e+01  9.9998823702183188e+01  9.9945016395076109e+01  1.0008334331057721e+02  1.0000213743212106e+02  9.9994160123816528e+01  9.9995458604701625e+01  9.9998400419724433e+01  1.0000322486098270e+02  9.9999670202634931e+01  1.0000050083536846e+02  9.9999284989616811e+01  1.0000133281309813e+02  9.9998218307331982e+01  1.0001437130395475e+02  1.0005185409540292e+02  1.0008045229116102e+02  1.0004627999999843e+02  1.0004620058086792e+02  1.0007191618856258e+02  1.0007477236958989e+02  1.0004810580909991e+02  1.0005422734868907e+02  9.9996331901781190e+01  9.9996857103909960e+01  1.0000377211090225e+02  9.9995719984202097e+01  9.9993668485172407e+01  1.0000131443305173e+02  1.0000458352298786e+02  1.0000093983873278e+02  1.0000017679374463e+02  1.0010193433255331e+02  1.0031529848929203e+02  1.0020114757937179e+02  1.0026475237638203e+02  1.0013864429626734e+02  1.0009962801663482e+02  1.0007906093482760e+02  1.0011432179080224e+02  1.0013452875984295e+02  1.0048031935408518e+02  1.0020543752344463e+02  1.0027722549311385e+02  1.0027180869827203e+02  1.0023123342983592e+02  1.0025297981958957e+02  1.0021718558260028e+02  1.0035067942017571e+02  1.0021734391318022e+02  1.0023187324370600e+02  1.0024630435917220e+02  1.0022257233989924e+02  1.0066917396649782e+02  1.0053985593978425e+02  1.0025051658822593e+02  1.0046823803056446e+02  1.0230311713593800e+02  1.0106717683389705e+02  1.0048686372509756e+02  1.0054431570317711e+02  1.0073443828805459e+02  1.0002563615148384e+02  1.0001523163499343e+02  1.0001270782644873e+02  1.0002202446098985e+02  1.0001829489733281e+02  1.0001880275040978e+02  9.9986196606355804e+01  1.0002976874840967e+02  1.0000256453496306e+02  1.0000722195546615e+02  1.0001960004211732e+02  1.0002826080690467e+02  1.0002572419849380e+02  1.0002646372566606e+02  1.0002767323030203e+02  1.0003844789341804e+02  1.0006904136192188e+02  1.0006371018729445e+02  1.0005144323196595e+02  1.0004212947694909e+02  1.0005379641336343e+02  1.0007230066641796e+02  1.0006878881993551e+02  1.0011421819912003e+02  1.0010510949929682e+02  1.0011532451784981e+02  1.0004880134482518e+02  1.0007132816435208e+02  1.0007332561706374e+02  1.0004087569289787e+02  1.0007015890514954e+02  1.0012060875925077e+02  1.0002060189116126e+02  1.0003120637457909e+02  1.0004511775876580e+02  1.0003882272821011e+02  1.0003910264267626e+02  1.0002550955784326e+02  1.0003373763482762e+02  1.0003715492310563e+02  1.0004879483014709e+02  1.0006537066297054e+02  1.0000642205470608e+02  1.0002439958188660e+02  1.0001190437200846e+02  1.0002532144139407e+02  1.0001065273817821e+02  1.0003011442922173e+02  1.0001393619727008e+02  1.0001619042137993e+02  1.0001203551684458e+02  1.0003558523716252e+02  1.0000108175831073e+02  9.9986992538873153e+01  1.0000850844554962e+02  9.9988793524841626e+01  9.9990181653210570e+01  9.9984056163403949e+01  1.0000306345730331e+02  9.9999865370796925e+01  1.0029476666806109e+02  1.0028702518653672e+02  1.0030254018982103e+02  1.0028496640335020e+02  1.0030641780458080e+02  1.0029363226734395e+02  1.0030102406797253e+02  1.0031288166211270e+02  1.0031163498090616e+02  1.0028391095875013e+02  9.9988383715111624e+01  1.0000381246299015e+02  1.0001036157859750e+02  9.9987968500210258e+01  1.0001810905811614e+02  1.0001229064210956e+02  9.9998414835448045e+01  1.0000379309204315e+02  9.9997935983730386e+01  1.0000667085226543e+02  1.0000744398013907e+02  9.9998962869729837e+01  1.0000044592108803e+02  9.9994627821903151e+01  1.0000504437888232e+02  1.0000067446460277e+02  9.9997485909510914e+01  1.0000084531095024e+02  1.0000388409570479e+02  1.0000663759124983e+02  1.0000742436699672e+02  9.9986925919603763e+01  1.0000209501162189e+02  9.9995444928301112e+01  1.0000053569899863e+02  1.0000127872297254e+02  1.0006387970602330e+02  1.0004213382729669e+02  1.0005774503954314e+02  1.0006758112023844e+02  1.0004428045761644e+02  1.0000251405696957e+02  1.0000101456347794e+02  9.9999426663957706e+01  9.9994913210221398e+01  9.9993756751662190e+01  9.9994046236659472e+01  1.0000506091469086e+02  1.0001668945854527e+02  9.9998638725103874e+01  1.0000998218685741e+02  1.0002245908392777e+02  1.0000636228948211e+02  9.9994368107756983e+01  1.0001832066559864e+02  9.9993563737007889e+01  9.9997976935380677e+01  1.0002263329122795e+02  9.9924244247931341e+01  1.0000025263640359e+02  9.9949346575593822e+01  1.0020655016476054e+02  9.9784303189570736e+01  9.9899651560289868e+01  9.9988936995221152e+01  1.0000867197119884e+02  9.9995831948442984e+01  1.0002342043738987e+02  1.0002323616791024e+02  1.0002161634772828e+02  1.0002439626734454e+02  1.0003773726754098e+02  1.0002060581253656e+02  1.0001855084848593e+02  1.0003180440904785e+02  1.0002791067450168e+02  1.0002855629432669e+02  1.0004432943323930e+02  1.0003848286189017e+02  1.0003998405955967e+02  1.0002754859189666e+02  9.9986348512475374e+01  1.0001215730095021e+02  9.9999909971806090e+01  1.0002118016643911e+02  9.9979928547768779e+01  9.9974417848849953e+01  9.9996780645612134e+01  1.0001461522334475e+02  9.9993977770285184e+01  9.9998429136861176e+01  1.0002160321531728e+02  1.0001993962272591e+02  1.0000661348729481e+02  1.0003121951185382e+02  1.0002566717007672e+02  1.0002427854341823e+02  1.0001907644506296e+02  1.0001400086227194e+02  1.0001332189043265e+02  1.0003423670619866e+02  1.0005546903240554e+02  1.0001126934485684e+02  9.9999876075457124e+01  9.9996165082287149e+01  1.0002685901411076e+02  1.0000229906935107e+02  1.0001597662600975e