<?xml version="1.0"?>
<VTKFile type="UnstructuredGrid"  version="0.1"  >
<UnstructuredGrid>
<Piece  NumberOfPoints="4055" NumberOfCells="19818">
<Points>
<DataArray  type="Float64"  NumberOfComponents="3"  format="ascii">27.5 50 17.5  27.5 50 18.75  26.25 50 18.75  26.25 48.75 18.75  27.5 50 20  27.5 37.5 0  27.5 37.5 1.25  27.5 36.25 1.25  26.25 36.25 1.25  27.5 36.25 0  26.25 36.25 0  27.5 37.5 2.5  27.5 36.25 2.5  26.25 36.25 2.5  26.25 37.5 1.25  26.25 37.5 0  25 37.5 2.5  26.25 37.5 2.5  30 37.5 0  30 37.5 1.25  30 36.25 1.25  28.75 36.25 1.25  30 36.25 0  28.75 36.25 0  30 37.5 2.5  30 36.25 2.5  28.75 36.25 2.5  28.75 37.5 1.25  28.75 37.5 0  28.75 37.5 2.5  32.5 37.5 0  32.5 37.5 1.25  32.5 36.25 1.25  31.25 36.25 1.25  32.5 36.25 0  31.25 36.25 0  32.5 37.5 2.5  32.5 36.25 2.5  31.25 36.25 2.5  31.25 37.5 1.25  31.25 37.5 0  31.25 37.5 2.5  35 37.5 0  35 37.5 1.25  35 36.25 1.25  33.75 36.25 1.25  35 36.25 0  33.75 36.25 0  35 37.5 2.5  33.75 37.5 1.25  33.75 37.5 0  33.75 37.5 2.5  33.75 36.25 2.5  36.25 37.5 1.25  36.25 37.5 0  36.25 36.25 1.25  36.25 36.25 0  37.5 37.5 0  37.5 37.5 1.25  37.5 37.5 2.5  36.25 37.5 2.5  27.5 38.75 1.25  27.5 38.75 0  26.25 38.75 1.25  26.25 38.75 0  27.5 40 0  27.5 40 1.25  27.5 40 2.5  27.5 38.75 2.5  26.25 38.75 2.5  26.25 40 1.25  25 38.75 2.5  25 40 2.5  26.25 40 2.5  28.75 38.75 1.25  28.75 38.75 0  30 38.75 1.25  30 38.75 0  30 40 0  30 40 1.25  30 40 2.5  30 38.75 2.5  28.75 38.75 2.5  28.75 40 1.25  28.75 40 0  28.75 40 2.5  31.25 38.75 1.25  31.25 38.75 0  32.5 38.75 1.25  32.5 38.75 0  32.5 40 0  32.5 40 1.25  32.5 40 2.5  32.5 38.75 2.5  31.25 38.75 2.5  31.25 40 1.25  31.25 40 0  31.25 40 2.5  33.75 38.75 1.25  33.75 38.75 0  35 38.75 1.25  35 38.75 0  35 40 0  35 40 1.25  35 40 2.5  35 38.75 2.5  33.75 38.75 2.5  33.75 40 1.25  33.75 40 0  33.75 40 2.5  36.25 38.75 1.25  36.25 38.75 0  37.5 38.75 1.25  37.5 38.75 0  37.5 40 0  37.5 40 1.25  37.5 40 2.5  37.5 38.75 2.5  36.25 38.75 2.5  36.25 40 1.25  36.25 40 0  36.25 40 2.5  40 40 0  40 40 1.25  40 38.75 1.25  38.75 38.75 1.25  40 40 2.5  40 38.75 2.5  38.75 38.75 2.5  38.75 38.75 0  38.75 40 1.25  38.75 40 0  38.75 40 2.5  41.25 40 1.25  41.25 40 0  41.25 38.75 1.25  42.5 40 0  42.5 40 1.25  42.5 40 2.5  41.25 40 2.5  41.25 38.75 2.5  27.5 41.25 1.25  27.5 41.25 0  26.25 41.25 1.25  26.25 41.25 0  27.5 42.5 0  27.5 42.5 1.25  27.5 42.5 2.5  27.5 41.25 2.5  26.25 41.25 2.5  25 42.5 0  26.25 42.5 1.25  26.25 42.5 0  25 41.25 2.5  25 42.5 2.5  26.25 42.5 2.5  28.75 41.25 1.25  28.75 41.25 0  30 41.25 1.25  30 41.25 0  30 42.5 0  30 42.5 1.25  30 42.5 2.5  30 41.25 2.5  28.75 41.25 2.5  28.75 42.5 1.25  28.75 42.5 0  28.75 42.5 2.5  31.25 41.25 1.25  31.25 41.25 0  32.5 41.25 1.25  32.5 41.25 0  32.5 42.5 0  32.5 42.5 1.25  32.5 42.5 2.5  32.5 41.25 2.5  31.25 41.25 2.5  31.25 42.5 1.25  31.25 42.5 0  31.25 42.5 2.5  33.75 41.25 1.25  33.75 41.25 0  35 41.25 1.25  35 41.25 0  35 42.5 0  35 42.5 1.25  35 42.5 2.5  35 41.25 2.5  33.75 41.25 2.5  33.75 42.5 1.25  33.75 42.5 0  33.75 42.5 2.5  36.25 41.25 1.25  36.25 41.25 0  37.5 41.25 1.25  37.5 41.25 0  37.5 42.5 0  37.5 42.5 1.25  37.5 42.5 2.5  37.5 41.25 2.5  36.25 41.25 2.5  36.25 42.5 1.25  36.25 42.5 0  36.25 42.5 2.5  38.75 41.25 1.25  38.75 41.25 0  40 41.25 1.25  40 41.25 0  40 42.5 0  40 42.5 1.25  40 42.5 2.5  40 41.25 2.5  38.75 41.25 2.5  38.75 42.5 1.25  38.75 42.5 0  38.75 42.5 2.5  41.25 41.25 1.25  41.25 41.25 0  42.5 41.25 1.25  42.5 41.25 0  42.5 42.5 0  42.5 42.5 1.25  42.5 42.5 2.5  42.5 41.25 2.5  41.25 41.25 2.5  41.25 42.5 1.25  41.25 42.5 0  41.25 42.5 2.5  45 40 0  45 41.25 1.25  45 41.25 0  43.75 41.25 1.25  43.75 41.25 0  45 42.5 0  45 42.5 1.25  45 42.5 2.5  45 40 2.5  45 41.25 2.5  43.75 41.25 2.5  43.75 40 2.5  43.75 42.5 1.25  43.75 42.5 0  43.75 42.5 2.5  47.5 40 0  47.5 41.25 1.25  47.5 41.25 0  46.25 41.25 1.25  46.25 41.25 0  47.5 42.5 0  47.5 42.5 1.25  47.5 42.5 2.5  47.5 40 2.5  47.5 41.25 2.5  46.25 41.25 2.5  46.25 40 2.5  46.25 42.5 1.25  46.25 42.5 0  46.25 42.5 2.5  50 40 0  50 41.25 1.25  50 41.25 0  48.75 41.25 1.25  48.75 41.25 0  50 42.5 0  50 42.5 1.25  50 42.5 2.5  50 40 1.25  50 40 2.5  50 41.25 2.5  48.75 41.25 2.5  48.75 40 2.5  48.75 42.5 1.25  48.75 42.5 0  48.75 42.5 2.5  26.25 43.75 1.25  26.25 43.75 0  27.5 43.75 1.25  27.5 43.75 0  27.5 45 0  27.5 45 1.25  27.5 45 2.5  27.5 43.75 2.5  26.25 43.75 2.5  26.25 45 1.25  25 45 2.5  26.25 45 2.5  28.75 43.75 1.25  28.75 43.75 0  30 43.75 1.25  30 43.75 0  30 45 0  30 45 1.25  30 45 2.5  30 43.75 2.5  28.75 43.75 2.5  28.75 45 1.25  28.75 45 0  28.75 45 2.5  31.25 43.75 1.25  31.25 43.75 0  32.5 43.75 1.25  32.5 43.75 0  32.5 45 0  32.5 45 1.25  32.5 45 2.5  32.5 43.75 2.5  31.25 43.75 2.5  31.25 45 1.25  31.25 45 0  31.25 45 2.5  33.75 43.75 1.25  33.75 43.75 0  35 43.75 1.25  35 43.75 0  35 45 0  35 45 1.25  35 45 2.5  35 43.75 2.5  33.75 43.75 2.5  33.75 45 1.25  33.75 45 0  33.75 45 2.5  36.25 43.75 1.25  36.25 43.75 0  37.5 43.75 1.25  37.5 43.75 0  37.5 45 0  37.5 45 1.25  37.5 45 2.5  37.5 43.75 2.5  36.25 43.75 2.5  36.25 45 1.25  36.25 45 0  36.25 45 2.5  38.75 43.75 1.25  38.75 43.75 0  40 43.75 1.25  40 43.75 0  40 45 0  40 45 1.25  40 45 2.5  40 43.75 2.5  38.75 43.75 2.5  38.75 45 1.25  38.75 45 0  38.75 45 2.5  41.25 43.75 1.25  41.25 43.75 0  42.5 43.75 1.25  42.5 43.75 0  42.5 45 0  42.5 45 1.25  42.5 45 2.5  42.5 43.75 2.5  41.25 43.75 2.5  41.25 45 1.25  41.25 45 0  41.25 45 2.5  43.75 43.75 1.25  43.75 43.75 0  45 43.75 1.25  45 43.75 0  45 45 0  45 45 1.25  45 45 2.5  45 43.75 2.5  43.75 43.75 2.5  43.75 45 1.25  43.75 45 0  43.75 45 2.5  46.25 43.75 1.25  46.25 43.75 0  47.5 43.75 1.25  47.5 43.75 0  47.5 45 0  47.5 45 1.25  47.5 45 2.5  47.5 43.75 2.5  46.25 43.75 2.5  46.25 45 1.25  46.25 45 0  46.25 45 2.5  48.75 43.75 1.25  48.75 43.75 0  50 43.75 1.25  50 43.75 0  50 45 0  50 45 1.25  50 45 2.5  50 43.75 2.5  48.75 43.75 2.5  48.75 45 1.25  48.75 45 0  48.75 45 2.5  27.5 46.25 1.25  27.5 46.25 0  26.25 46.25 1.25  26.25 46.25 0  27.5 47.5 0  27.5 47.5 1.25  27.5 47.5 2.5  27.5 46.25 2.5  26.25 46.25 2.5  25 47.5 0  26.25 47.5 1.25  26.25 47.5 0  25 46.25 2.5  25 47.5 2.5  26.25 47.5 2.5  28.75 46.25 1.25  28.75 46.25 0  30 46.25 1.25  30 46.25 0  30 47.5 0  30 47.5 1.25  30 47.5 2.5  30 46.25 2.5  28.75 46.25 2.5  28.75 47.5 1.25  28.75 47.5 0  28.75 47.5 2.5  31.25 46.25 1.25  31.25 46.25 0  32.5 46.25 1.25  32.5 46.25 0  32.5 47.5 0  32.5 47.5 1.25  32.5 47.5 2.5  32.5 46.25 2.5  31.25 46.25 2.5  31.25 47.5 1.25  31.25 47.5 0  31.25 47.5 2.5  33.75 46.25 1.25  33.75 46.25 0  35 46.25 1.25  35 46.25 0  35 47.5 0  35 47.5 1.25  35 47.5 2.5  35 46.25 2.5  33.75 46.25 2.5  33.75 47.5 1.25  33.75 47.5 0  33.75 47.5 2.5  36.25 46.25 1.25  36.25 46.25 0  37.5 46.25 1.25  37.5 46.25 0  37.5 47.5 0  37.5 47.5 1.25  37.5 47.5 2.5  37.5 46.25 2.5  36.25 46.25 2.5  36.25 47.5 1.25  36.25 47.5 0  36.25 47.5 2.5  38.75 46.25 1.25  38.75 46.25 0  40 46.25 1.25  40 46.25 0  40 47.5 0  40 47.5 1.25  40 47.5 2.5  40 46.25 2.5  38.75 46.25 2.5  38.75 47.5 1.25  38.75 47.5 0  38.75 47.5 2.5  41.25 46.25 1.25  41.25 46.25 0  42.5 46.25 1.25  42.5 46.25 0  42.5 47.5 0  42.5 47.5 1.25  42.5 47.5 2.5  42.5 46.25 2.5  41.25 46.25 2.5  41.25 47.5 1.25  41.25 47.5 0  41.25 47.5 2.5  43.75 46.25 1.25  43.75 46.25 0  45 46.25 1.25  45 46.25 0  45 47.5 0  45 47.5 1.25  45 47.5 2.5  45 46.25 2.5  43.75 46.25 2.5  43.75 47.5 1.25  43.75 47.5 0  43.75 47.5 2.5  46.25 46.25 1.25  46.25 46.25 0  47.5 46.25 1.25  47.5 46.25 0  47.5 47.5 0  47.5 47.5 1.25  47.5 47.5 2.5  47.5 46.25 2.5  46.25 46.25 2.5  46.25 47.5 1.25  46.25 47.5 0  46.25 47.5 2.5  48.75 46.25 1.25  48.75 46.25 0  50 46.25 1.25  50 46.25 0  50 47.5 0  50 47.5 1.25  50 47.5 2.5  50 46.25 2.5  48.75 46.25 2.5  48.75 47.5 1.25  48.75 47.5 0  48.75 47.5 2.5  26.25 48.75 1.25  26.25 48.75 0  27.5 48.75 1.25  27.5 48.75 0  27.5 50 0  27.5 50 1.25  27.5 50 2.5  27.5 48.75 2.5  26.25 48.75 2.5  26.25 50 1.25  25 48.75 2.5  25 50 2.5  26.25 50 2.5  28.75 48.75 1.25  28.75 48.75 0  30 48.75 1.25  30 48.75 0  30 50 0  30 50 1.25  30 50 2.5  30 48.75 2.5  28.75 48.75 2.5  28.75 50 1.25  28.75 50 0  28.75 50 2.5  31.25 48.75 1.25  31.25 48.75 0  32.5 48.75 1.25  32.5 48.75 0  32.5 50 0  32.5 50 1.25  32.5 50 2.5  32.5 48.75 2.5  31.25 48.75 2.5  31.25 50 1.25  31.25 50 0  31.25 50 2.5  33.75 48.75 1.25  33.75 48.75 0  35 48.75 1.25  35 48.75 0  35 50 0  35 50 1.25  35 50 2.5  35 48.75 2.5  33.75 48.75 2.5  33.75 50 1.25  33.75 50 0  33.75 50 2.5  36.25 48.75 1.25  36.25 48.75 0  37.5 48.75 1.25  37.5 48.75 0  37.5 50 0  37.5 50 1.25  37.5 50 2.5  37.5 48.75 2.5  36.25 48.75 2.5  36.25 50 1.25  36.25 50 0  36.25 50 2.5  38.75 48.75 1.25  38.75 48.75 0  40 48.75 1.25  40 48.75 0  40 50 0  40 50 1.25  40 50 2.5  40 48.75 2.5  38.75 48.75 2.5  38.75 50 1.25  38.75 50 0  38.75 50 2.5  41.25 48.75 1.25  41.25 48.75 0  42.5 48.75 1.25  42.5 48.75 0  42.5 50 0  42.5 50 1.25  42.5 50 2.5  42.5 48.75 2.5  41.25 48.75 2.5  41.25 50 1.25  41.25 50 0  41.25 50 2.5  43.75 48.75 1.25  43.75 48.75 0  45 48.75 1.25  45 48.75 0  45 50 0  45 50 1.25  45 50 2.5  45 48.75 2.5  43.75 48.75 2.5  43.75 50 1.25  43.75 50 0  43.75 50 2.5  46.25 48.75 1.25  46.25 48.75 0  47.5 48.75 1.25  47.5 48.75 0  47.5 50 0  47.5 50 1.25  47.5 50 2.5  47.5 48.75 2.5  46.25 48.75 2.5  46.25 50 1.25  46.25 50 0  46.25 50 2.5  48.75 48.75 1.25  48.75 48.75 0  50 48.75 1.25  50 48.75 0  50 50 0  50 50 1.25  50 50 2.5  50 48.75 2.5  48.75 48.75 2.5  48.75 50 1.25  48.75 50 0  48.75 50 2.5  27.5 37.5 3.75  27.5 36.25 3.75  26.25 36.25 3.75  27.5 37.5 5  27.5 36.25 5  26.25 36.25 5  26.25 37.5 3.75  25 37.5 5  26.25 37.5 5  25 37.5 3.75  30 37.5 3.75  30 36.25 3.75  28.75 36.25 3.75  30 37.5 5  30 36.25 5  28.75 36.25 5  28.75 37.5 3.75  28.75 37.5 5  32.5 37.5 3.75  32.5 36.25 3.75  31.25 36.25 3.75  32.5 37.5 5  32.5 36.25 5  31.25 36.25 5  31.25 37.5 3.75  31.25 37.5 5  33.75 37.5 3.75  33.75 36.25 3.75  35 37.5 3.75  35 37.5 5  33.75 37.5 5  33.75 36
[...]
<PointData  Vectors="u"> 
<DataArray  type="Float64"  Name="u"  NumberOfComponents="3" format="ascii">1.9999999998075873e+02 -5.6976739081372822e-10 1.1902270387231439e-10  1.9999999998057908e+02 7.5589787972288792e-11 -1.4105364275882939e-12  1.9999999998150668e+02 2.0772235412314554e-10 -1.9288238746698317e-11  1.9999999998145194e+02 2.0305418856075831e-11 -1.0216128463049070e-10  1.9999999998075796e+02 -5.5160488375433877e-10 9.9737240649928608e-11  1.9999999998081748e+02 1.3693241742551539e-10 6.7636818450719670e-10  1.9999999998071561e+02 -1.6245713212926974e-11 -9.9036472367252418e-11  1.9999999998049603e+02 -1.8832797240705408e-10 -1.8275241600876301e-10  1.9999999998142246e+02 -8.1938212719187342e-11 -1.5282191660369568e-10  1.9999999998058621e+02 -9.4914861132824197e-11 5.5242157143180976e-11  1.9999999998133049e+02 -2.4251651990106782e-10 -4.3846538789964431e-10  1.9999999998078098e+02 7.1374192890300101e-11 1.6958545926671692e-10  1.9999999998070604e+02 -8.0120459682468405e-11 4.7397371294412024e-11  1.9999999998141382e+02 -1.2374145694054865e-10 -1.7346707074374282e-10  1.9999999998139404e+02 -2.4671015214219726e-10 -2.0091244325647270e-10  1.9999999998146754e+02 -1.4775543052157354e-10 1.5535693219005577e-11  1.9999999998232545e+02 7.0837376045350431e-11 1.6651782167392350e-10  1.9999999998147680e+02 -2.8805251739139212e-11 3.9828945327476033e-11  1.9999999997916908e+02 1.1977284454136648e-10 6.4539954803578532e-10  1.9999999997905329e+02 -1.2570319836071418e-11 -6.8546896910376077e-11  1.9999999997885834e+02 -1.5025280922805681e-10 -1.7232268833574093e-10  1.9999999997980342e+02 -9.2065266680746101e-11 -1.3505311086045821e-10  1.9999999997900244e+02 -3.9733682035870016e-11 -1.2206141993195725e-11  1.9999999997969465e+02 -2.3048560401327547e-10 -4.5084217648975718e-10  1.9999999997913807e+02 8.3456353144666273e-11 1.6740275114564601e-10  1.9999999997904413e+02 -3.9872172744610876e-11 -2.0194565321695980e-11  1.9999999997975766e+02 -1.3964150244731205e-10 -1.1465591904228480e-10  1.9999999997976636e+02 -2.1493826268401289e-10 -1.7952702463755741e-10  1.9999999997982275e+02 -8.1914405670038172e-11 2.1987646760721379e-11  1.9999999997988917e+02 -3.4619961282027245e-11 4.4937265215086448e-12  1.9999999997755390e+02 1.2211124415459008e-10 6.4530052198439210e-10  1.9999999997739081e+02 -2.1275831168011395e-11 -9.7282517766831749e-11  1.9999999997727463e+02 -1.2417261379187502e-10 -1.7217161756810773e-10  1.9999999997814587e+02 -8.2105212477985105e-11 -1.4786884592339824e-10  1.9999999997735625e+02 -8.4818363267006886e-11 -4.4448451775228212e-11  1.9999999997803067e+02 -2.5971254888854901e-10 -4.9691616421847268e-10  1.9999999997750547e+02 8.0620483636909584e-11 1.6789754608417669e-10  1.9999999997739090e+02 -6.1395100853388258e-11 2.6897279419401087e-11  1.9999999997815036e+02 -1.1081560261893884e-10 -2.1760101413048715e-10  1.9999999997811773e+02 -1.6329442976280190e-10 -1.7508034131498799e-10  1.9999999997819685e+02 -5.5637716818794049e-11 9.6379647420852061e-12  1.9999999997819293e+02 -1.5249603897547597e-11 1.7443537870761366e-11  1.9999999997593318e+02 1.2032077900632852e-10 6.4458466342060611e-10  1.9999999997578834e+02 -1.4288918227342120e-11 -9.1649343874037335e-11  1.9999999997564359e+02 -1.4390428720499124e-10 -1.9345232746348232e-10  1.9999999997657656e+02 -1.0502082966668424e-10 -1.6454897475259883e-10  1.9999999997574628e+02 -1.0515181673442240e-10 3.1986629921485655e-11  1.9999999997642755e+02 -1.9499391016770974e-10 -4.4606967666612362e-10  1.9999999997592499e+02 8.1092451577945447e-11 1.6788245843934866e-10  1.9999999997653137e+02 -1.8955569606994852e-10 -1.9540334622337206e-10  1.9999999997658520e+02 -1.0743206489639655e-10 -4.5092110785224350e-11  1.9999999997663599e+02 -7.0554790107387612e-12 2.3318205969678575e-11  1.9999999997651273e+02 -1.6419174057657172e-10 -1.7123560034767778e-10  1.9999999997488541e+02 -1.8744198995326732e-10 -1.7912024205356552e-10  1.9999999997495314e+02 -1.0335414269283875e-10 -1.8620392169239770e-11  1.9999999997495334e+02 -1.2822408122036830e-10 -1.6124766965768423e-10  1.9999999997482712e+02 -2.1709368240448567e-10 -4.4067604944190311e-10  1.9999999997434116e+02 8.6167907366519372e-11 6.5679345012063739e-10  1.9999999997423095e+02 -7.4660275508119926e-11 -2.8810873671837355e-11  1.9999999997434242e+02 6.9964219314836388e-11 1.5422926248599156e-10  1.9999999997496772e+02 -1.5710705224499794e-11 4.5118126445882499e-11  1.9999999998054068e+02 -1.2996796816291083e-10 -2.2798632694641230e-10  1.9999999998059201e+02 -9.6729339773351832e-11 1.9921125928949927e-11  1.9999999998144034e+02 -8.8506134845484418e-11 -1.4007947154907474e-10  1.9999999998135993e+02 -2.2140599221528753e-10 -4.4331154192651779e-10  1.9999999998081680e+02 1.2036896888090909e-10 6.8305718229571020e-10  1.9999999998068668e+02 -2.4581640716967718e-11 -8.1576288458766020e-11  1.9999999998079508e+02 1.1846530827094367e-10 1.7342142235838979e-10  1.9999999998068901e+02 -7.0137241295107844e-11 5.7390537601870464e-11  1.9999999998140058e+02 -1.2402603007077024e-10 -1.4347845714719300e-10  1.9999999998142258e+02 -1.5950920762449250e-10 -1.6411504513032225e-10  1.9999999998237752e+02 2.1272803217594685e-11 -2.5151788447322331e-11  1.9999999998230689e+02 1.0417925671980676e-10 1.6356898035900907e-10  1.9999999998145691e+02 -8.3140935459146545e-12 2.1155369628467483e-11  1.9999999997978202e+02 -1.1593166806618797e-10 -1.6674741982528131e-10  1.9999999997968973e+02 -2.2782273319044943e-10 -4.3997762730315722e-10  1.9999999997891086e+02 -1.3632496536463622e-10 -1.9640067333044646e-10  1.9999999997898948e+02 -9.2505781299486583e-11 -1.0622029573795949e-11  1.9999999997918363e+02 1.2484198825455596e-10 6.5811391191102282e-10  1.9999999997906230e+02 5.4728752435504676e-12 -6.9860809326297885e-11  1.9999999997915347e+02 1.0405010295668681e-10 1.5618037362391186e-10  1.9999999997905942e+02 -7.5051678396031990e-11 6.7056341206316901e-11  1.9999999997977159e+02 -1.2296867977818147e-10 -1.3590105504217335e-10  1.9999999997975968e+02 -1.4638936039850992e-10 -2.1260467239808398e-10  1.9999999997984295e+02 -8.2805850990691955e-11 7.1831727967893128e-11  1.9999999997985239e+02 3.9415484488536563e-12 6.9124986761203212e-11  1.9999999997816457e+02 -9.7198924214608647e-11 -1.6837285872677489e-10  1.9999999997802320e+02 -2.2348570525209373e-10 -4.4307961476646998e-10  1.9999999997724260e+02 -1.1879145456293754e-10 -1.8824713556225894e-10  1.9999999997734292e+02 -4.9698715200662050e-11 1.6464030777424662e-11  1.9999999997756299e+02 1.1001015996521389e-10 6.5992674195167162e-10  1.9999999997742614e+02 -1.2318855751349957e-11 -7.3563740324321055e-11  1.9999999997751709e+02 9.5454408656014586e-11 1.6991899229899747e-10  1.9999999997742373e+02 1.6359981967144157e-12 2.7890803261664268e-11  1.9999999997813805e+02 -1.1629729590545150e-10 -1.4216142571259900e-10  1.9999999997810329e+02 -1.9391831834173965e-10 -1.7384515632467829e-10  1.9999999997817164e+02 -1.2460455317997705e-10 4.2265425474213829e-12  1.9999999997823517e+02 -5.0827704790402716e-12 5.1190188749078263e-11  1.9999999997656138e+02 -7.5075703947396240e-11 -1.5642768444626361e-10  1.9999999997643860e+02 -2.0062899100123989e-10 -4.9335242913829372e-10  1.9999999997564635e+02 -1.0441912088370492e-10 -2.0151288480139979e-10  1.9999999997575625e+02 -6.4919417025826517e-11 -3.5117364799784412e-12  1.9999999997595114e+02 1.1873099487319166e-10 6.4700529105880890e-10  1.9999999997579002e+02 -4.3930429770226609e-11 -7.2991367554988772e-11  1.9999999997591431e+02 8.9035814705916359e-11 1.5958637099797764e-10  1.9999999997581349e+02 -2.1469980935061200e-11 3.8450663368174092e-11  1.9999999997651582e+02 -8.6474284572128729e-11 -1.5298652475869341e-10  1.9999999997653319e+02 -1.8345650229796577e-10 -1.7755408430243401e-10  1.9999999997657363e+02 -8.3840405568102216e-11 3.0517883860839291e-11  1.9999999997659705e+02 -1.3848332670442523e-11 4.0832639515952015e-11  1.9999999997491716e+02 -6.2993821524887505e-11 -1.2828508554524885e-10  1.9999999997477411e+02 -1.8999400249972406e-10 -4.5453937051793955e-10  1.9999999997404311e+02 -1.0688389285609823e-10 -1.5635229566342692e-10  1.9999999997416373e+02 -4.7280115005887031e-11 -9.2891846913555737e-12  1.9999999997432562e+02 1.3218963561591792e-10 6.1824260885016670e-10  1.9999999997420701e+02 1.5612806414700573e-11 -5.7477703361029270e-11  1.9999999997432738e+02 7.5320267843900916e-11 1.5743062419901822e-10  1.9999999997421685e+02 -2.9203057732186571e-11 6.7844967935727841e-11  1.9999999997492233e+02 -1.0777176800717541e-10 -1.7180984299611956e-10  1.9999999997489829e+02 -1.7113627128333248e-10 -2.0584521395308721e-10  1.9999999997494626e+02 -4.0531015940448547e-11 1.5197602714381817e-11  1.9999999997498378e+02 -5.9607280833114396e-12 4.7494523953510533e-11  1.9999999997280753e+02 8.0231496066476837e-11 6.5393321032764207e-10  1.9999999997266033e+02 -2.5592038642888872e-11 -8.7349126659692410e-11  1.9999999997250589e+02 -1.0300513464335410e-10 -1.9149353507886142e-10  1.9999999997341112e+02 -5.3937758739293714e-11 -1.5028024915648655e-10  1.9999999997278184e+02 8.8627944075794893e-11 1.6258820404956291e-10  1.9999999997267881e+02 -4.1741500161194524e-11 3.4836695531754683e-11  1.9999999997333720e+02 -1.0474181127196958e-10 -1.5528982693159252e-10  1.9999999997329837e+02 -1.8434064580666928e-10 -3.9778008214832499e-10  1.9999999997336582e+02 -2.3030630098551967e-10 -1.7710795713253075e-10  1.9999999997343011e+02 -8.9275618089876215e-11 5.2668748284437913e-13  1.9999999997341126e+02 -2.8757579753779737e-11 5.1438771896373541e-11  1.9999999997177591e+02 -1.7433452880093224e-10 -1.6410784500753278e-10  1.9999999997179819e+02 -9.6755499391348754e-11 4.4651650284579798e-11  1.9999999997180578e+02 -8.1521115926702613e-11 -1.6305137486987800e-10  1.9999999997128623e+02 1.0270099925105227e-10 6.6374657981461153e-10  1.9999999997113474e+02 -1.3045145465621811e-12 -6.1717385255540859e-11  1.9999999997121532e+02 8.0869141906164176e-11 1.5644544651926788e-10  1.9999999997185964e+02 1.0776549623447269e-11 3.4836984145518043e-11  1.9999999997181308e+02 -1.2366248768807808e-10 -1.3482833806652160e-10  1.9999999998054986e+02 -9.3441243732040317e-11 -2.0387139588004867e-10  1.9999999998063760e+02 -2.2917628549096990e-11 -1.3629692992007443e-11  1.9999999998143727e+02 -6.3087205226976325e-11 -1.2196198344084849e-10  1.9999999998135894e+02 -2.2497764040650317e-10 -4.2771969425346198e-10  1.9999999998080870e+02 1.1636042747112820e-10 6.4990663966030619e-10  1.9999999998069711e+02 -2.5447287307514546e-11 -4.9140607907767345e-11  1.9999999998079949e+02 1.2190223666256145e-10 1.6077857776765660e-10  1.9999999998067545e+02 -3.6607243690095965e-11 4.4480109427537414e-11  1.9999999998140979e+02 -1.2855709631220428e-10 -1.6432504334319569e-10  1.9999999998235717e+02 1.2140754281049833e-10 6.5507538257952735e-10  1.9999999998145645e+02 -1.8468160067687419e-10 -2.0477888331453258e-10  1.9999999998151515e+02 -8.7096281360368569e-11 7.7513700155886758e-12  1.9999999998239340e+02 -4.8981187641416309e-11 -2.6295388507568389e-11  1.9999999998232320e+02 1.1143324926680917e-10 1.9772721092024309e-10  1.9999999998148749e+02 -3.0376685629683786e-11 5.2514843523348952e-11  1.9999999997976457e+02 -8.4613390644656009e-11 -1.4650971841776335e-10  1.9999999997966398e+02 -2.1189367798365320e-10 -5.1265664166381382e-10  1.9999999997891732e+02 -1.4693932314327677e-10 -1.8110259166133553e-10  1.9999999997898146e+02 -7.5358156695033218e-11 -4.2853855540600085e-12  1.9999999997919687e+02 1.4290513529104574e-10 6.7920886878309821e-10  1.9999999997907372e+02 1.9350595848091074e-11 -6.4070324160941066e-11  1.9999999997912485e+02 9.8487122003894773e-11 1.6945786591177589e-10  1.9999999997905871e+02 -4.6718080646864627e-11 5.5052272643099638e-11  1.9999999997977201e+02 -1.2201875973531339e-10 -1.5085664357508816e-10  1.9999999997971534e+02 -1.5539878042055713e-10 -1.6910411649890276e-10  1.9999999997978139e+02 -5.3016910051498593e-11 1.4866294903410381e-11  1.9999999997982206e+02 3.4234986761631787e-11 1.3510578730473439e-11  1.9999999997815590e+02 -7.1764917784071792e-11 -1.2387613850079887e-10  1.9999999997802723e+02 -1.8692059042720043e-10 -5.2758541441466775e-10  1.9999999997725021e+02 -1.3204111028823915e-10 -1.5519783036087369e-10  1.9999999997741111e+02 -5.5714616315235038e-11 3.5511881969268371e-13  1.9999999997755708e+02 1.2205469512621309e-10 6.2606499790061845e-10  1.9999999997741270e+02 1.0886689310214720e-11 -8.7631979900375961e-11  1.9999999997751158e+02 5.2605172886855714e-11 1.5444113733706006e-10  1.9999999997743160e+02 -2.8280531747464927e-11 2.0924491673625193e-11  1.9999999997813867e+02 -1.3612971373663516e-10 -2.0880206436469465e-10  1.9999999997809778e+02 -1.7752374113294799e-10 -2.1943204820361548e-10  1.9999999997819737e+02 -6.5903093748252184e-11 2.1462297523483448e-11  1.9999999997822880e+02 -3.7146293658360791e-12 1.6372252629239328e-11  1.9999999997656218e+02 -7.0032014514313636e-11 -1.6750303223299952e-10  1.9999999997642769e+02 -1.5598564788568854e-10 -4.3650614360445709e-10  1.9999999997563526e+02 -1.0890823999324826e-10 -1.8421700477876021e-10  1.9999999997574218e+02 -9.2162932180447791e-11 -9.8103127634716678e-12  1.9999999997590083e+02 1.2260796686822111e-10 6.7383421535521555e-10  1.9999999997578865e+02 -2.8903001726638891e-13 -9.5483853606307954e-11  1.9999999997590257e+02 6.3834048225721845e-11 1.4207028411618937e-10  1.9999999997581989e+02 -5.0464089701451170e-11 2.6376882837056797e-11  1.9999999997650889e+02 -1.2345994610103589e-10 -1.7537732497225948e-10  1.9999999997654479e+02 -1.9258452925534618e-10 -2.2086557689893159e-10  1.9999999997659592e+02 -8.5446417711734885e-11 2.4218769104423928e-11  1.9999999997662766e+02 -1.6826258550286778e-11 3.1352617627154238e-11  1.9999999997495175e+02 -9.4755315452173197e-11 -1.6639222120405508e-10  1.9999999997482411e+02 -2.4379931471749039e-10 -4.0871071220261771e-10  1.9999999997402719e+02 -1.4245517125920041e-10 -1.8404959143190773e-10  1.9999999997413144e+02 -4.3609313726551554e-11 -1.4777306922201644e-12  1.9999999997436407e+02 1.3053300457791402e-10 6.5382475191929475e-10  1.9999999997422094e+02 2.2786166065187419e-11 -9.4513365928254383e-11  1.9999999997431772e+02 8.5419864471782992e-11 1.4703850882155062e-10  1.9999999997416731e+02 -2.0030214171648399e-11 1.3733000533214490e-11  1.9999999997492287e+02 -1.0923127006902006e-10 -1.4942002056560956e-10  1.9999999997491187e+02 -1.7353205304642762e-10 -1.8724247179474544e-10  1.9999999997499015e+02 -7.9252402682852254e-11 3.3886631650194191e-11  1.9999999997501860e+02 -4.0010092291975958e-11 2.8517025347986273e-11  1.9999999997339361e+02 -6.5923064038110978e-11 -1.7770731205103766e-10  1.9999999997326739e+02 -1.8515599428549096e-10 -4.4016733412888592e-10  1.9999999997252326e+02 -1.3124293533282858e-10 -1.7640526743915042e-10  1.9999999997257677e+02 -4.9610970954241275e-11 3.0177518682417454e-11  1.9999999997280923e+02 1.3684387792469533e-10 6.7268750933354818e-10  1.9999999997270626e+02 2.0446772870518856e-12 -1.1590176492441143e-10  1.9999999997278096e+02 1.0759746150298309e-10 1.8037032471868466e-10  1.9999999997271149e+02 -3.7479166361494846e-11 4.1434687300712210e-11  1.9999999997336408e+02 -1.1879487254736155e-10 -1.1252349461100551e-10  1.9999999997332924e+02 -1.4676290110326239e-10 -1.9601803422518679e-10  1.9999999997338256e+02 -4.7982968776215242e-11 -1.0024636613302593e-11  1.9999999997344059e+02 2.6031822891080442e-11 5.2784053143135893e-11  1.9999999997182468e+02 -6.1633946231560839e-11 -1.2463922315938583e-10  1.9999999997171349e+02 -1.7062224176398592e-10 -4.4704973530315609e-10  1.9999999997098891e+02 -1.1421599478059501e-10 -1.7498247537595466e-10  1.9999999997109967e+02 -3.7441430380556390e-11 2.3314617190152965e-11  1.9999999997126122e+02 1.3690580030137713e-10 6.3845530981206082e-10  1.9999999997113096e+02 3.4194530981754408e-12 -7.4730760717139104e-11  1.9999999997120236e+02 1.0287065982005466e-10 1.5982247051391955e-10  1.9999999997111556e+02 -4.9899333667915393e-12 2.1670050478411340e-11  1.9999999997179890e+02 -1.1816641412142378e-10 -1.7119232469328809e-10  1.9999999997177639e+02 -1.5191131340826155e-10 -1.7118932074501524e-10  1.9999999997185901e+02 -4.5658942098338712e-11 2.1196325243886523e-11  1.9999999997189761e+02 -1.5029659678442180e-11 2.4253702113746318e-11  1.9999999996973267e+02 1.2002989265407065e-10 6.6955724842938261e-10  1.9999999996944652e+02 -1.2259191995448525e-10 -2.2425422096739409e-10  1.9999999996953233e+02 -5.2238782796736489e-11 3.8122215010768876e-11  1.9999999997032202e+02 -8.3380240223159794e-11 -1.8067598532470501e-10  1.9999999997021382e+02 -1.9357248587041950e-10 -4.8792990236813099e-10  1.9999999996974105e+02 1.1599969654893801e-10 6.5693127221248480e-10  1.9999999996961137e+02 -1.1767311721900956e-12 -7.9271311095264403e-11  1.9999999996971326e+02 1.0605629793058939e-10 1.3612623740906859e-10  1.9999999996969436e+02 8.1265135794336331e-11 1.2606200961061580e-10  1.9999999996962325e+02 -2.3895549033165961e-11 4.1366886327646771e-11  1.9999999997025515e+02 -1.3558264523606619e-10 -1.4160712069753541e-10  1.9999999997037565e+02 9.3700016407581388e-12 1.4736004169057454e-11  1.9999999997027780e+02 -1.5630192199527724e-10 -1.9957783057773360e-10  1.9999999997032654e+02 -6.8032759240091195e-11 4.0221729089461503e-11  1.9999999997038606e+02 2.7694621245906099e-11 4.2422920195082353e-11  1.9999999996821606e+02 1.0201856413546022e-10 5.9295494910264721e-10  1.9999999996798763e+02 -9.6346079071750461e-11 -1.7818778238880956e-10  1.9999999996805548e+02 -4.4301994234390860e-11 7.6640995367219243e-13  1.9999999996877460e+02 -7.9954437911336858e-11 -1.6220500168870298e-10  1.9999999996868436e+02 -1.6217246502844521e-10 -4.5538910132488158e-10  1.9999999996819491e+02 1.1245543811525265e-10 5.7256698827855469e-10  1.9999999996811073e+02 -1.5822328787680331e-11 -9.0645363827941125e-11  1.9999999996817334e+02 9.3896003971677750e-11 1.3196307439306191e-10  1.9999999996819295e+02 4.6934490013571333e-11 1.5063920934856979e-10  1.9999999996813506e+02 -2.0507016105661814e-11 2.7140913702659754e-11  1.9999999996876511e+02 -9.2350929417342730e-11 -1.9288927587428937e-10  1.9999999996888852e+02 -4.0047023889304869e-11 2.0364623497179716e-11  1.9999999996873288e+02 -1.4736745861451317e-10 -1.7524171225423777e-10  1.9999999996881201e+02 -7.4742011961484199e-11 -4.2985705211756906e-12  1.9999999996881462e+02 2.9890765189806888e-11 1.4279202615403815e-11  1.9999999996663695e+02 3.9321850419524792e-11 2.9088498728029940e-10  1.9999999996632840e+02 6.5733377665614046e-12 -1.4542953470885019e-11  1.9999999996644283e+02 1.6978193805682204e-12 -1.0059579248026085e-10  1.9999999996735463e+02 -8.3517240663269109e-11 -1.4289621565768144e-10  1.9999999996725936e+02 -1.7512194962268432e-10 -3.7027869856199752e-10  1.9999999996661194e+02 3.1113501177388334e-11 2.9835434773197100e-10  1.9999999996644232e+02 -1.5328059596684933e-11 -3.6211725318725166e-11  1.9999999996659770e+02 2.4411677199983410e-11 5.7468009439683910e-11  1.9999999996648242e+02 3.2542687118316624e-12 -2.2670081220015308e-11  1.9999999996660793e+02 3.1276289077720854e-11 6.2697093313517385e-11  1.9999999996641404e+02 -1.0588787308235065e-11 6.8877411592971835e-12  1.9999999996733402e+02 -1.0742256077271309e-10 -1.5528179104367771e-10  1.9999999996738882e+02 -1.6409760085262897e-11 3.5887085612306957e-11  1.9999999996733837e+02 -2.0252135774112787e-10 -1.6749878254978665e-10  1.9999999996739163e+02 -1.0228851156907158e-10 3.8002705045045286e-12  1.9999999996738586e+02 -5.8847887376193803e-12 5.9950668075121078e-12  1.9999999998146677e+02 -6.4399863762426921e-11 -1.1894167149478604e-10  1.9999999998132978e+02 -2.2297643190711609e-10 -4.3136430079369125e-10  1.9999999998051734e+02 -1.2267363443177620e-10 -1.6866598119387237e-10  1.9999999998065880e+02 -9.6014287780322330e-11 -1.6402162772123044e-12  1.9999999998081137e+02 1.2530735884625759e-10 6.6346361428306569e-10  1.99999999980