<?xml version="1.0"?>
<VTKFile type="UnstructuredGrid"  version="0.1"  >
<UnstructuredGrid>
<Piece  NumberOfPoints="3946" NumberOfCells="19511">
<Points>
<DataArray  type="Float64"  NumberOfComponents="3"  format="ascii">25 2.5 37.5  25 3.75 38.75  25 3.75 37.5  23.75 3.75 38.75  25 5 37.5  25 5 38.75  25 5 40  25 2.5 38.75  25 2.5 40  25 3.75 40  26.25 6.25 38.75  26.25 6.25 37.5  25 6.25 37.5  25 7.5 37.5  26.25 7.5 38.75  26.25 7.5 37.5  27.5 7.5 37.5  27.5 7.5 38.75  27.5 7.5 40  26.25 6.25 40  25 6.25 40  25 7.5 40  26.25 7.5 40  25 7.5 38.75  25 8.75 38.75  25 8.75 37.5  23.75 8.75 38.75  25 10 37.5  25 10 38.75  25 10 40  25 8.75 40  26.25 8.75 38.75  26.25 8.75 37.5  27.5 8.75 38.75  27.5 8.75 37.5  27.5 10 37.5  27.5 10 38.75  27.5 10 40  27.5 8.75 40  26.25 8.75 40  26.25 10 38.75  26.25 10 37.5  26.25 10 40  25 11.25 38.75  25 11.25 37.5  23.75 11.25 38.75  25 12.5 37.5  25 12.5 38.75  25 12.5 40  25 11.25 40  26.25 11.25 38.75  26.25 11.25 37.5  27.5 11.25 38.75  27.5 11.25 37.5  27.5 12.5 37.5  27.5 12.5 38.75  27.5 12.5 40  27.5 11.25 40  26.25 11.25 40  26.25 12.5 38.75  26.25 12.5 37.5  26.25 12.5 40  26.25 13.75 38.75  26.25 13.75 37.5  27.5 13.75 38.75  27.5 13.75 37.5  27.5 15 37.5  27.5 15 38.75  27.5 15 40  27.5 13.75 40  26.25 13.75 40  25 15 37.5  26.25 15 38.75  26.25 15 37.5  25 15 40  26.25 15 40  26.25 16.25 38.75  26.25 16.25 37.5  27.5 16.25 38.75  27.5 16.25 37.5  27.5 17.5 37.5  27.5 17.5 38.75  27.5 17.5 40  27.5 16.25 40  26.25 16.25 40  25 17.5 37.5  26.25 17.5 38.75  26.25 17.5 37.5  25 17.5 40  26.25 17.5 40  25 17.5 38.75  26.25 18.75 38.75  26.25 18.75 37.5  27.5 18.75 38.75  27.5 18.75 37.5  27.5 20 37.5  27.5 20 38.75  27.5 20 40  27.5 18.75 40  26.25 18.75 40  25 18.75 37.5  25 20 37.5  26.25 20 38.75  26.25 20 37.5  25 20 40  26.25 20 40  26.25 21.25 38.75  26.25 21.25 37.5  27.5 21.25 38.75  27.5 21.25 37.5  27.5 22.5 37.5  27.5 22.5 38.75  27.5 22.5 40  27.5 21.25 40  26.25 21.25 40  25 21.25 37.5  25 22.5 37.5  26.25 22.5 37.5  25 21.25 40  25 22.5 40  26.25 22.5 40  25 5 42.5  26.25 5 42.5  26.25 3.75 42.5  26.25 3.75 41.25  27.5 5 42.5  26.25 5 41.25  25 5 41.25  26.25 6.25 41.25  26.25 6.25 42.5  27.5 6.25 42.5  27.5 7.5 42.5  26.25 7.5 41.25  27.5 7.5 41.25  25 6.25 42.5  25 7.5 42.5  26.25 7.5 42.5  25 7.5 41.25  26.25 8.75 41.25  27.5 8.75 41.25  27.5 10 41.25  27.5 10 42.5  27.5 8.75 42.5  26.25 8.75 42.5  26.25 10 41.25  25 8.75 41.25  25 8.75 42.5  25 10 42.5  26.25 10 42.5  25 10 41.25  26.25 11.25 41.25  27.5 11.25 41.25  27.5 12.5 41.25  27.5 12.5 42.5  27.5 11.25 42.5  26.25 11.25 42.5  26.25 12.5 41.25  25 11.25 42.5  25 12.5 42.5  26.25 12.5 42.5  26.25 13.75 41.25  27.5 13.75 41.25  27.5 15 41.25  27.5 15 42.5  27.5 13.75 42.5  26.25 13.75 42.5  26.25 15 41.25  25 13.75 42.5  25 15 42.5  26.25 15 42.5  25 15 41.25  26.25 16.25 41.25  27.5 16.25 41.25  27.5 17.5 41.25  27.5 17.5 42.5  27.5 16.25 42.5  26.25 16.25 42.5  26.25 17.5 41.25  25 17.5 42.5  26.25 17.5 42.5  26.25 18.75 41.25  27.5 18.75 41.25  27.5 20 41.25  27.5 20 42.5  27.5 18.75 42.5  26.25 18.75 42.5  26.25 20 41.25  25 20 42.5  26.25 20 42.5  26.25 21.25 41.25  27.5 21.25 41.25  27.5 2.5 45  27.5 3.75 45  26.25 3.75 45  26.25 3.75 43.75  27.5 5 45  26.25 5 43.75  27.5 5 43.75  25 5 45  26.25 5 45  25 5 43.75  26.25 6.25 43.75  27.5 6.25 43.75  27.5 7.5 43.75  27.5 7.5 45  27.5 6.25 45  26.25 6.25 45  26.25 7.5 43.75  25 6.25 45  25 7.5 45  26.25 7.5 45  25 7.5 43.75  26.25 8.75 43.75  27.5 8.75 43.75  27.5 10 43.75  27.5 10 45  27.5 8.75 45  26.25 8.75 45  26.25 10 43.75  25 10 45  26.25 10 45  25 10 43.75  26.25 11.25 43.75  27.5 11.25 43.75  27.5 12.5 43.75  27.5 12.5 45  27.5 11.25 45  26.25 11.25 45  26.25 12.5 43.75  25 12.5 45  26.25 12.5 45  25 12.5 43.75  26.25 13.75 43.75  27.5 13.75 43.75  27.5 15 43.75  27.5 15 45  27.5 13.75 45  26.25 13.75 45  26.25 15 43.75  26.25 15 45  26.25 16.25 43.75  27.5 16.25 43.75  27.5 17.5 43.75  27.5 17.5 45  27.5 16.25 45  26.25 16.25 45  26.25 17.5 43.75  25 17.5 45  26.25 17.5 45  26.25 18.75 43.75  27.5 18.75 43.75  27.5 20 43.75  27.5 20 45  27.5 18.75 45  26.25 18.75 45  26.25 20 43.75  25 20 45  26.25 20 45  27.5 0 45  27.5 1.25 46.25  27.5 1.25 45  26.25 1.25 46.25  27.5 2.5 46.25  27.5 2.5 47.5  27.5 0 46.25  26.25 0 46.25  27.5 0 47.5  27.5 1.25 47.5  26.25 1.25 47.5  26.25 0 47.5  26.25 2.5 46.25  27.5 3.75 46.25  26.25 3.75 46.25  27.5 5 46.25  27.5 5 47.5  27.5 3.75 47.5  26.25 3.75 47.5  26.25 5 46.25  26.25 6.25 46.25  27.5 6.25 46.25  27.5 7.5 46.25  27.5 7.5 47.5  27.5 6.25 47.5  26.25 6.25 47.5  26.25 7.5 46.25  26.25 7.5 47.5  26.25 8.75 46.25  27.5 8.75 46.25  27.5 10 46.25  27.5 10 47.5  27.5 8.75 47.5  26.25 8.75 47.5  26.25 10 46.25  25 10 47.5  26.25 10 47.5  26.25 11.25 46.25  27.5 11.25 46.25  27.5 12.5 46.25  27.5 12.5 47.5  27.5 11.25 47.5  26.25 11.25 47.5  26.25 12.5 46.25  25 12.5 47.5  26.25 12.5 47.5  26.25 13.75 46.25  27.5 13.75 46.25  27.5 15 46.25  27.5 15 47.5  27.5 13.75 47.5  26.25 13.75 47.5  26.25 15 46.25  25 15 47.5  26.25 15 47.5  27.5 16.25 46.25  26.25 16.25 46.25  27.5 17.5 46.25  27.5 17.5 47.5  27.5 16.25 47.5  26.25 16.25 47.5  26.25 17.5 46.25  26.25 17.5 47.5  26.25 18.75 46.25  27.5 18.75 46.25  26.25 18.75 47.5  27.5 1.25 48.75  26.25 1.25 48.75  27.5 2.5 48.75  27.5 2.5 50  27.5 0 48.75  26.25 0 48.75  27.5 0 50  27.5 1.25 50  25 0 50  26.25 1.25 50  26.25 0 50  26.25 2.5 48.75  26.25 2.5 50  27.5 3.75 48.75  26.25 3.75 48.75  27.5 5 48.75  27.5 5 50  27.5 3.75 50  26.25 3.75 50  26.25 5 48.75  27.5 6.25 48.75  26.25 6.25 48.75  27.5 7.5 48.75  27.5 7.5 50  27.5 6.25 50  26.25 6.25 50  26.25 7.5 48.75  27.5 8.75 48.75  26.25 8.75 48.75  27.5 10 48.75  27.5 10 50  27.5 8.75 50  26.25 8.75 50  26.25 10 48.75  26.25 11.25 48.75  27.5 11.25 48.75  27.5 12.5 48.75  27.5 12.5 50  27.5 11.25 50  26.25 11.25 50  26.25 12.5 48.75  25 12.5 50  26.25 12.5 50  26.25 13.75 48.75  27.5 13.75 48.75  27.5 15 48.75  27.5 15 50  27.5 13.75 50  26.25 13.75 50  26.25 15 48.75  25 15 50  26.25 15 50  26.25 16.25 48.75  27.5 16.25 48.75  27.5 17.5 48.75  27.5 17.5 50  27.5 16.25 50  26.25 16.25 50  26.25 17.5 48.75  25 16.25 50  25 17.5 50  26.25 17.5 50  26.25 18.75 48.75  27.5 18.75 48.75  26.25 18.75 50  25 0 27.5  25 1.25 27.5  25 1.25 26.25  23.75 1.25 26.25  25 0 26.25  23.75 0 26.25  25 2.5 27.5  23.75 1.25 27.5  23.75 0 27.5  23.75 2.5 27.5  25 3.75 27.5  25 3.75 26.25  23.75 3.75 26.25  25 5 27.5  23.75 3.75 27.5  23.75 5 27.5  25 7.5 27.5  25 7.5 26.25  25 6.25 26.25  23.75 6.25 26.25  25 6.25 27.5  23.75 6.25 27.5  23.75 7.5 26.25  22.5 7.5 27.5  23.75 7.5 27.5  25 8.75 27.5  25 8.75 26.25  23.75 8.75 26.25  25 10 27.5  23.75 8.75 27.5  22.5 10 27.5  23.75 10 27.5  22.5 10 25  23.75 10 26.25  22.5 10 26.25  23.75 11.25 26.25  23.75 11.25 27.5  25 11.25 27.5  25 12.5 27.5  22.5 11.25 27.5  22.5 12.5 27.5  23.75 12.5 27.5  23.75 12.5 26.25  23.75 13.75 27.5  23.75 13.75 26.25  25 13.75 27.5  25 15 27.5  23.75 15 27.5  23.75 15 26.25  25 16.25 27.5  25 16.25 26.25  23.75 16.25 26.25  25 17.5 27.5  23.75 16.25 27.5  25 1.25 28.75  23.75 1.25 28.75  25 2.5 28.75  25 2.5 30  25 0 28.75  23.75 0 28.75  25 0 30  25 1.25 30  23.75 1.25 30  23.75 0 30  23.75 2.5 28.75  22.5 2.5 30  23.75 2.5 30  25 3.75 28.75  23.75 3.75 28.75  25 5 28.75  25 5 30  25 3.75 30  23.75 3.75 30  23.75 5 28.75  22.5 3.75 30  22.5 5 30  23.75 5 30  25 6.25 28.75  23.75 6.25 28.75  25 7.5 28.75  25 7.5 30  25 6.25 30  23.75 6.25 30  23.75 7.5 28.75  23.75 7.5 30  23.75 8.75 28.75  25 8.75 28.75  25 10 28.75  25 10 30  25 8.75 30  23.75 8.75 30  23.75 10 28.75  22.5 10 30  23.75 10 30  23.75 11.25 28.75  25 11.25 28.75  25 12.5 28.75  25 12.5 30  25 11.25 30  23.75 11.25 30  23.75 12.5 28.75  22.5 11.25 30  22.5 12.5 30  23.75 12.5 30  22.5 12.5 28.75  23.75 13.75 28.75  25 13.75 28.75  25 15 28.75  25 15 30  25 13.75 30  23.75 13.75 30  23.75 15 28.75  25 16.25 28.75  23.75 16.25 28.75  25 17.5 28.75  25 17.5 30  25 16.25 30  25 1.25 31.25  23.75 1.25 31.25  25 2.5 31.25  25 2.5 32.5  25 0 31.25  23.75 0 31.25  25 0 32.5  25 1.25 32.5  23.75 2.5 31.25  23.75 3.75 31.25  25 3.75 31.25  25 5 31.25  25 5 32.5  25 3.75 32.5  23.75 3.75 32.5  23.75 5 31.25  22.5 5 32.5  23.75 5 32.5  23.75 6.25 31.25  25 6.25 31.25  25 7.5 31.25  25 7.5 32.5  25 6.25 32.5  23.75 6.25 32.5  23.75 7.5 31.25  22.5 7.5 32.5  23.75 7.5 32.5  25 8.75 31.25  23.75 8.75 31.25  25 10 31.25  25 10 32.5  25 8.75 32.5  23.75 8.75 32.5  23.75 10 31.25  22.5 10 32.5  23.75 10 32.5  23.75 11.25 31.25  25 11.25 31.25  25 12.5 31.25  25 12.5 32.5  25 11.25 32.5  23.75 11.25 32.5  23.75 12.5 31.25  22.5 11.25 32.5  22.5 12.5 32.5  23.75 12.5 32.5  23.75 13.75 31.25  25 13.75 31.25  25 15 31.25  25 15 32.5  25 13.75 32.5  23.75 13.75 32.5  25 16.25 31.25  23.75 16.25 31.25  25 17.5 31.25  25 17.5 32.5  25 16.25 32.5  23.75 16.25 32.5  25 18.75 31.25  25 18.75 30  23.75 18.75 31.25  25 20 30  25 20 31.25  25 20 32.5  25 18.75 32.5  25 3.75 33.75  23.75 3.75 33.75  25 5 33.75  25 5 35  25 2.5 33.75  25 2.5 35  25 3.75 35  23.75 5 33.75  23.75 6.25 33.75  25 6.25 33.75  25 7.5 33.75  25 7.5 35  25 6.25 35  23.75 6.25 35  23.75 7.5 33.75  23.75 8.75 33.75  25 8.75 33.75  25 10 33.75  25 10 35  25 8.75 35  23.75 8.75 35  23.75 10 33.75  26.25 8.75 33.75  26.25 8.75 35  26.25 10 35  27.5 10 35  26.25 10 33.75  23.75 11.25 33.75  25 11.25 33.75  25 12.5 33.75  25 12.5 35  25 11.25 35  23.75 11.25 35  23.75 12.5 33.75  26.25 11.25 33.75  26.25 11.25 35  27.5 11.25 35  27.5 12.5 35  26.25 12.5 35  26.25 12.5 33.75  23.75 13.75 33.75  25 13.75 33.75  25 15 33.75  25 15 35  25 13.75 35  26.25 13.75 33.75  26.25 13.75 35  27.5 13.75 35  27.5 15 35  26.25 15 35  26.25 15 33.75  25 16.25 33.75  23.75 16.25 33.75  25 17.5 33.75  25 17.5 35  25 16.25 35  26.25 16.25 33.75  26.25 16.25 35  27.5 16.25 35  27.5 17.5 35  26.25 17.5 35  26.25 17.5 33.75  26.25 18.75 33.75  26.25 18.75 35  27.5 18.75 35  27.5 20 35  25 18.75 33.75  25 18.75 35  25 20 35  26.25 20 35  26.25 20 33.75  25 20 33.7
[...]
<PointData  Vectors="u"> 
<DataArray  type="Float64"  Name="u"  NumberOfComponents="3" format="ascii">1.9999999998250013e+02 1.5376092369598707e-10 -9.4666176220607128e-12  1.9999999998226795e+02 -8.2319819384223946e-11 -1.5286532803323519e-10  1.9999999998230513e+02 7.7901465612046110e-13 5.3263170695074414e-11  1.9999999998311273e+02 -3.7018384724200946e-11 -1.4870058052104984e-10  1.9999999998243439e+02 8.0631396421255519e-11 -3.7287274178690126e-11  1.9999999998226195e+02 -1.1537245500041375e-11 -1.7052989463133577e-11  1.9999999998245457e+02 1.3751661124212685e-10 4.3445559808480041e-11  1.9999999998227855e+02 2.2542622713354374e-11 -5.4783956985889934e-11  1.9999999998246011e+02 7.0280670357752385e-11 5.3144674510217022e-11  1.9999999998227867e+02 2.7052495455918646e-11 -6.4908050506164041e-11  1.9999999998143502e+02 -6.2889369953669718e-11 -7.4294620376863824e-11  1.9999999998127430e+02 1.9474299777819319e-12 -2.8929371739361932e-11  1.9999999998222549e+02 -3.7240710094985035e-11 5.5312746386382865e-11  1.9999999998243129e+02 1.4401690379052732e-10 -6.8769252661219818e-11  1.9999999998137881e+02 -2.0896644131225831e-10 -7.4533550841265800e-11  1.9999999998147896e+02 -1.1343364382905377e-11 -1.5786464672002966e-11  1.9999999998081202e+02 1.6030448761605511e-10 -3.4357779869633960e-11  1.9999999998065104e+02 1.2846235006700650e-10 -6.6729668226758563e-11  1.9999999998078422e+02 1.1817655312674172e-10 9.1824774064341160e-11  1.9999999998137199e+02 -2.1656534083458813e-11 -2.2414990580650677e-10  1.9999999998233056e+02 -2.2829309625219321e-11 3.7860679046419861e-11  1.9999999998241131e+02 1.2367596485878589e-10 8.9512188264339232e-11  1.9999999998146757e+02 1.6980884229834032e-11 3.0732824572979498e-12  1.9999999998230251e+02 4.7982398418793240e-11 1.0146615450467358e-11  1.9999999998210166e+02 -1.2684071451869612e-10 -7.9921551987184437e-11  1.9999999998225013e+02 -1.2447320428742703e-11 8.8482629255139944e-12  1.9999999998310329e+02 -6.5795194443290342e-11 -9.2432568208359048e-11  1.9999999998244755e+02 1.8055594030303028e-10 -5.8878910750652394e-11  1.9999999998230038e+02 4.6781235384822038e-11 -5.7756262667829101e-12  1.9999999998245306e+02 9.9075844084905993e-11 7.0879443203621778e-11  1.9999999998229740e+02 -2.0536519516357527e-11 -4.5428115008277911e-12  1.9999999998143463e+02 -2.8612113755166327e-11 -9.0899892238856745e-11  1.9999999998135121e+02 -2.0777094812850473e-10 -1.9900837372756315e-10  1.9999999998061656e+02 -6.3811874804026257e-11 -1.5714932212476738e-10  1.9999999998063421e+02 1.9533579362279218e-11 4.1680534808596795e-11  1.9999999998082234e+02 1.3770212808018747e-10 -1.4006921121765332e-11  1.9999999998061068e+02 5.5598945282679319e-11 -5.4450558730976996e-11  1.9999999998080651e+02 1.5045507495588700e-10 8.2772698152662278e-11  1.9999999998063402e+02 2.1757770046855193e-11 3.4521835456739214e-11  1.9999999998138978e+02 -1.1167748492998923e-10 -1.8003756160524920e-10  1.9999999998144864e+02 -5.7591601525534130e-11 -1.1040804123247550e-10  1.9999999998149002e+02 2.8387703644999741e-11 3.3607366828568401e-11  1.9999999998145310e+02 4.0374004421476688e-11 -2.1334969245373401e-11  1.9999999998221060e+02 -7.4878060220452961e-11 -1.2758422759723751e-10  1.9999999998229424e+02 9.5896272213503190e-12 2.5382031720883703e-11  1.9999999998309170e+02 -7.1597427250256423e-11 -1.6887752965174230e-10  1.9999999998248435e+02 1.3725341374524120e-10 -6.1402103051142401e-11  1.9999999998235444e+02 4.8277559155045067e-12 -5.7545822376043735e-11  1.9999999998248180e+02 1.0061883720368682e-10 6.2818838679713655e-11  1.9999999998236569e+02 3.5143318650742293e-11 -1.7251734790788063e-11  1.9999999998148155e+02 -4.5342652162291655e-11 -1.5031140140628648e-10  1.9999999998129235e+02 -1.6987125323968496e-10 4.5486177681602602e-11  1.9999999998047340e+02 -2.8639374691049707e-11 -9.2700811793844998e-11  1.9999999998059008e+02 -6.4770057422123761e-13 6.5328043874800079e-11  1.9999999998077328e+02 1.2746887760571980e-10 -1.5858199186830478e-11  1.9999999998061483e+02 1.6275709564935697e-11 1.2468513497674113e-11  1.9999999998078212e+02 1.3868353597930609e-10 2.5925646399800461e-11  1.9999999998057342e+02 4.2310272276587576e-11 -2.7156343878980551e-11  1.9999999998146512e+02 -2.4065078423735847e-11 -2.4379721868506376e-10  1.9999999998144773e+02 -1.4098340230166220e-10 -9.7352880412948104e-11  1.9999999998146410e+02 -1.4156502538992428e-12 3.9464011110432057e-11  1.9999999998151887e+02 -8.9757514597536509e-12 -1.8811731256094470e-11  1.9999999998147067e+02 -7.3424834772837291e-11 -1.1961610297887999e-10  1.9999999998132853e+02 -2.0072388502063453e-10 -8.4221983354010679e-11  1.9999999998057632e+02 -7.9797385347346705e-11 -4.5672116601913924e-11  1.9999999998060503e+02 -2.3514385723106508e-11 7.6466474129105602e-11  1.9999999998082035e+02 1.0248996754412714e-10 -7.6558812133503814e-12  1.9999999998065513e+02 6.3263892412459262e-12 3.8836454679925099e-11  1.9999999998082845e+02 -1.2676156283730178e-11 5.3787294800655978e-11  1.9999999998063282e+02 8.7619401505387050e-11 -1.4594753611472829e-11  1.9999999998151341e+02 -7.0347033945596927e-11 -2.0722767330606930e-10  1.9999999998248089e+02 1.2805033196378639e-10 -5.1868767678209614e-11  1.9999999998139404e+02 -1.6066136960633965e-10 -1.0348638445586627e-10  1.9999999998145304e+02 -8.4190276608039672e-11 3.4761682252791649e-11  1.9999999998246599e+02 1.0631787977119312e-10 6.5487611022112291e-11  1.9999999998152438e+02 -7.5535784922992071e-12 -6.3091297595078826e-13  1.9999999998144747e+02 -9.4708448103261451e-11 -1.1660077910381678e-10  1.9999999998129786e+02 -1.7048393769566950e-10 -1.1266724545649989e-10  1.9999999998062367e+02 -9.9711039768182443e-11 -1.5325419687530919e-10  1.9999999998064411e+02 -2.8141996443811206e-11 1.0650700041999632e-10  1.9999999998079801e+02 1.2526490140124709e-10 8.0251040280950406e-12  1.9999999998066485e+02 4.4689855739139726e-12 -4.8857355938909130e-11  1.9999999998083760e+02 1.1566553691638744e-10 6.9943944946941458e-11  1.9999999998064774e+02 -2.9464221912962054e-11 -2.6005046003817922e-11  1.9999999998137071e+02 -1.0054504850097050e-10 -1.9032043972529667e-10  1.9999999998251391e+02 1.3483150999479031e-10 -4.2427204939967029e-11  1.9999999998141979e+02 -1.2480940835388855e-10 -1.5976726098095021e-10  1.9999999998150128e+02 -5.8544892677555846e-11 9.0601262064158165e-11  1.9999999998245096e+02 1.0084789605593437e-10 1.1061867016684286e-10  1.9999999998146328e+02 -2.8740679620332556e-11 -7.9905457612970721e-13  1.9999999998238818e+02 1.0815774414197313e-11 -1.8182612265123097e-11  1.9999999998146734e+02 -1.0535437807909233e-10 -1.3274253910512036e-10  1.9999999998133666e+02 -2.5157821630668076e-10 -6.9438628542404640e-11  1.9999999998064703e+02 -1.1599893727634312e-10 -1.2613077615452379e-10  1.9999999998065337e+02 -7.0255563716894046e-11 1.1518075260921458e-10  1.9999999998082242e+02 7.9806490678923710e-11 1.4835976311521431e-11  1.9999999998062975e+02 -2.0060642494851336e-11 1.1924976545466958e-11  1.9999999998081549e+02 3.8254065172314773e-11 8.3075289272285511e-11  1.9999999998069165e+02 2.9354694258244207e-11 -3.6739135559236539e-11  1.9999999998143440e+02 -8.4967031682485427e-11 -1.8983485333975687e-10  1.9999999998229293e+02 -8.0408410132194483e-11 5.9619434309169992e-11  1.9999999998249152e+02 1.5979811019034516e-10 -5.7101717606873798e-11  1.9999999998143431e+02 -1.3130503147256520e-10 -7.9541043844421155e-11  1.9999999998143883e+02 -3.5105004698393826e-11 5.1107481329112740e-11  1.9999999998246142e+02 1.1791453244292574e-10 1.1485984259123626e-10  1.9999999998151043e+02 -9.6553599013025192e-12 -1.9897239145958875e-11  1.9999999998145319e+02 -6.7882000631819971e-11 -1.3508586778779267e-10  1.9999999998130258e+02 -1.7786748218375061e-10 -6.8948908499872348e-11  1.9999999998056157e+02 -7.5108364775198669e-11 -1.7403534264950107e-10  1.9999999998061870e+02 7.2829147083614878e-12 1.5054394732653670e-10  1.9999999998075936e+02 7.2188468456307250e-11 3.3126362811280424e-11  1.9999999998062958e+02 -1.2958177630717141e-11 -5.1790495264736219e-11  1.9999999998080179e+02 7.9613035270750184e-11 9.7865690516402627e-11  1.9999999998063117e+02 1.7633863446356215e-11 3.0424326004555419e-11  1.9999999998139506e+02 -1.1502542013984756e-10 -2.2356561901575137e-10  1.9999999998228270e+02 -2.9879443070076763e-11 3.0416016190129432e-11  1.9999999998246989e+02 1.1830958158489053e-10 -6.3211827744953569e-11  1.9999999998146029e+02 -5.3518228137148275e-11 3.1905042619613522e-11  1.9999999998232443e+02 -2.4296931431473562e-11 -9.5244516540817607e-13  1.9999999998246668e+02 8.9016776469803258e-11 1.1429688459799375e-10  1.9999999998148675e+02 6.9355299777848880e-11 -1.9960577840869662e-11  1.9999999998244482e+02 1.1589395082361831e-10 7.0181868961202835e-11  1.9999999998151722e+02 -7.2198048600617870e-12 -4.0965348322373822e-11  1.9999999998148263e+02 1.9141489480564466e-11 -2.3921835698219683e-10  1.9999999998147280e+02 -4.0886024665880885e-12 -6.2662208961748166e-11  1.9999999998077581e+02 8.7527472817600758e-11 8.5780806045169593e-11  1.9999999998141553e+02 -1.9972514942492100e-10 -4.4805099794860804e-11  1.9999999998234321e+02 9.2165155030943875e-11 -5.0950773809410837e-11  1.9999999998145202e+02 -6.7693847617772285e-11 -1.3077862093207662e-10  1.9999999998142701e+02 -1.9031394494489906e-11 -1.8214930747793421e-10  1.9999999998061460e+02 7.1034605453477758e-11 5.3247888529443451e-11  1.9999999998077868e+02 1.4410284601031709e-10 9.9707053597486912e-11  1.9999999998141882e+02 -1.5682359724644100e-10 -7.5979702975348604e-11  1.9999999998058743e+02 9.5502341026626059e-11 1.2586441555723613e-10  1.9999999998234537e+02 2.5157296706692547e-11 -2.6184400285129222e-11  1.9999999998244684e+02 1.3573547588139782e-10 6.5163520476408445e-11  1.9999999998152785e+02 1.7682915416107407e-11 -2.7469925558286256e-11  1.9999999998232821e+02 3.6706026685225771e-11 -1.6219905782668360e-11  1.9999999998142289e+02 -7.4672169476785190e-11 -9.0916678586032225e-11  1.9999999998060221e+02 -8.6086337674217969e-11 -1.0734881183556746e-10  1.9999999998063208e+02 3.7315287193592362e-11 1.0036570986570152e-11  1.9999999998081469e+02 8.5766351941671132e-11 9.8653733022776592e-11  1.9999999998063009e+02 -3.9774842092315927e-11 6.0938839082716711e-11  1.9999999998145628e+02 -1.1447890948812652e-10 -2.0110380983781896e-10  1.9999999998144662e+02 -1.8280444901283979e-10 -1.3124661179299135e-10  1.9999999998214508e+02 -1.2199137719531262e-10 -1.6172755096065558e-10  1.9999999998235216e+02 -2.0402464304937040e-11 1.0978394214962263e-11  1.9999999998242251e+02 1.2706294097577512e-10 9.0174692194797717e-11  1.9999999998154951e+02 3.0241831990097661e-11 9.1125945184817383e-12  1.9999999998233429e+02 1.1419637911653213e-11 -1.7472275592883339e-11  1.9999999998143414e+02 -6.1293186920484097e-11 -1.1117207049831429e-10  1.9999999998058576e+02 -1.0136346056448501e-10 -1.7773032935881373e-10  1.9999999998061506e+02 6.0139790056692239e-11 -5.6338283029607942e-11  1.9999999998079713e+02 1.4154117160958795e-10 8.5686873394725575e-11  1.9999999998060622e+02 -4.7871474540542687e-11 -2.4327955621120068e-12  1.9999999998139788e+02 -7.3152679046563667e-11 -1.8915216136550983e-10  1.9999999998141575e+02 -1.4551834516242193e-10 -1.7950843059014453e-10  1.9999999998234105e+02 2.3696697827987640e-11 6.2819802002725681e-12  1.9999999998244218e+02 1.0229309321924403e-10 7.0736773109489204e-11  1.9999999998145026e+02 2.2452336945144418e-11 2.0188126800165870e-12  1.9999999998147814e+02 -6.3742777400103047e-11 -1.1778486622149029e-10  1.9999999998055881e+02 -3.4955930809458744e-11 -1.7444780495254291e-10  1.9999999998062759e+02 -5.9872629180161910e-11 -7.0998945872630108e-11  1.9999999998079866e+02 5.4492750605713151e-11 8.0860636970500560e-11  1.9999999998061324e+02 5.5165917789548176e-11 -4.4663413473504849e-11  1.9999999998143193e+02 -6.9128577983498708e-11 -1.8069991807174574e-10  1.9999999998142263e+02 -1.6741530423025488e-10 -1.6194728623908923e-10  1.9999999998236464e+02 -1.3090148297228851e-11 8.4119271688800704e-12  1.9999999998244490e+02 1.0356270083615114e-10 9.8503787385051494e-11  1.9999999998153132e+02 -1.5557929632620239e-11 -1.2738616845584994e-11  1.9999999998235674e+02 2.1735039705928898e-11 -2.7013881110518193e-11  1.9999999998142764e+02 -5.8117749036116730e-11 -9.1656792407827668e-11  1.9999999998057851e+02 -2.6634611579479044e-11 -8.8748591922916918e-11  1.9999999998067233e+02 1.3697434004081211e-11 6.0986313875635352e-11  1.9999999998082887e+02 9.0615693773488081e-11 7.1534654752435224e-11  1.9999999998063811e+02 1.2911015736825304e-10 2.1609136177259269e-11  1.9999999998142260e+02 -5.0918367981378515e-11 -2.0314349253113369e-10  1.9999999998140862e+02 -2.1898052594495215e-10 -9.6675536113463916e-11  1.9999999998246963e+02 1.1687947550937865e-10 1.0294292526965493e-10  1.9999999998150321e+02 -1.9403463847877792e-12 -1.1154904072269409e-11  1.9999999998143855e+02 -9.4852991858888787e-11 -7.9557420376412859e-11  1.9999999998066588e+02 -1.0343276751311133e-10 -8.3121228445419406e-11  1.9999999998065169e+02 -5.2497132146669920e-11 -5.7716638674885676e-11  1.9999999998083243e+02 3.4398170898359494e-11 8.9582224543618530e-11  1.9999999998071544e+02 -6.7342168464350524e-11 -2.7889374727464307e-11  1.9999999998142150e+02 -1.1148625375481572e-10 -2.0893677450733163e-10  1.9999999998138267e+02 -1.4363169629781237e-10 -1.3357729564411307e-10  1.9999999998246182e+02 9.6069102620755205e-11 8.2913219713117283e-11  1.9999999998143176e+02 2.0951000142161126e-11 3.9543721428172572e-11  1.9999999998141362e+02 -8.0648785546465153e-11 -7.8697477831778387e-11  1.9999999998056262e+02 -9.6866491610905874e-11 -1.5681441990254692e-10  1.9999999998082120e+02 3.2265115668846553e-11 6.2957560475947816e-11  1.9999999998059519e+02 2.8163642174871990e-11 3.3919656842737288e-11  1.9999999998138182e+02 -7.4209302217205007e-11 -1.8179009101305679e-10  1.9999999998146043e+02 -4.1674212272462235e-11 -1.1719350493569670e-10  1.9999999998077357e+02 1.2666148435999847e-10 3.0290029922331350e-11  1.9999999998142698e+02 -1.7736936847656264e-10 -1.1103628083462795e-10  1.9999999998062876e+02 8.9508334476943996e-11 -9.0616818321000786e-12  1.9999999998245218e+02 1.2173947627131779e-10 9.4767832759189043e-11  1.9999999998151353e+02 3.6652029144827543e-11 -1.7905551605380222e-11  1.9999999998238098e+02 -5.3842634047993575e-12 -5.0123410471681670e-11  1.9999999998145731e+02 -4.0023959431254586e-11 -1.0505557943115997e-10  1.9999999998059559e+02 -6.7585997283440422e-11 -1.1497132297684884e-10  1.9999999998064015e+02 6.2031293383460157e-11 -1.1658732853610619e-10  1.9999999998080696e+02 1.1838512550300438e-10 4.9191846722501461e-11  1.9999999998063370e+02 -4.1433031083512447e-13 -4.1706618054809798e-11  1.9999999998140956e+02 -1.1004410303030817e-10 -1.7232572570959619e-10  1.9999999998142528e+02 -1.4139974551017786e-10 -1.3146603058772269e-10  1.9999999998233349e+02 4.7914975258350602e-11 3.5301308709823842e-11  1.9999999998241282e+02 1.4760985867336131e-10 7.1548584080981290e-11  1.9999999998151847e+02 4.5287340212316108e-11 -6.5891845059307936e-11  1.9999999998234739e+02 5.5229366567422657e-11 -6.1517018701612693e-12  1.9999999998145663e+02 -8.0168189679991565e-11 -9.5485066810114125e-11  1.9999999998058323e+02 -9.3850570075018571e-11 -2.1670667195619912e-10  1.9999999998062106e+02 3.2345553338519332e-12 -5.9099812020342468e-11  1.9999999998080622e+02 1.3111546403849489e-10 7.7083395323451229e-11  1.9999999998061713e+02 6.9255410318568452e-11 3.7608468800579984e-11  1.9999999998140177e+02 -8.6747408110306371e-11 -1.7026788805375032e-10  1.9999999998143375e+02 -1.4091928595958331e-10 -1.2320426888511164e-10  1.9999999998243945e+02 9.7910582709823007e-11 6.0513980628428695e-11  1.9999999998152418e+02 8.8078731903874649e-12 -4.3855680685256076e-11  1.9999999998236351e+02 1.1781490084714051e-11 -3.1730580261446829e-11  1.9999999998145779e+02 -9.9828330758232987e-11 -1.0742084056381526e-10  1.9999999998054633e+02 -1.1942460213313040e-10 -8.0383470834442041e-11  1.9999999998063288e+02 8.8402337082839451e-12 -4.5314793454256467e-11  1.9999999998081017e+02 9.6427581381551523e-11 1.0438269972755563e-10  1.9999999998063265e+02 -7.0273942346289542e-11 -1.0110760398170247e-12  1.9999999998146555e+02 -8.4835082155323470e-11 -1.7854554290601159e-10  1.9999999998141726e+02 -1.1580763416140135e-10 -1.6086796194387097e-10  1.9999999998245229e+02 1.0372235752601832e-10 9.9310423141718860e-11  1.9999999998150741e+02 1.4794854531465426e-11 1.3196727895670470e-11  1.9999999998235711e+02 3.2722750765819872e-11 -5.6847767373081604e-11  1.9999999998142920e+02 -5.4707509299535529e-11 -1.5351481593507814e-10  1.9999999998055858e+02 -7.1945254116428109e-11 -1.3981461546957147e-10  1.9999999998061597e+02 6.3358322844482131e-11 -7.1185379312848732e-11  1.9999999998082612e+02 1.6088033007762660e-10 1.2959533516436257e-10  1.9999999998061668e+02 -1.2248064563734142e-11 3.0093201364738948e-11  1.9999999998143562e+02 -1.0308296115149952e-10 -1.7785651735056304e-10  1.9999999998136195e+02 -1.7282622780724407e-10 -1.3386738797845548e-10  1.9999999998153098e+02 2.7022357901115371e-11 -4.2142903380124503e-11  1.9999999998143883e+02 -5.7819907347757766e-11 -9.7924480675998425e-11  1.9999999998060235e+02 -3.8120624601984663e-11 -1.1286347478571020e-10  1.9999999998065269e+02 1.8768994285050557e-11 -3.4256462846782712e-11  1.9999999998085565e+02 1.2150404128730068e-10 1.0020263299183692e-10  1.9999999998069208e+02 -1.4049779106838146e-11 -3.4508790878799473e-11  1.9999999998142439e+02 -8.0974407702128517e-11 -2.4009506947190457e-10  1.9999999998145381e+02 -1.7121885614495737e-10 -1.0566364137111988e-10  1.9999999998245889e+02 1.0340054348771353e-10 8.5456871846571592e-11  1.9999999998148846e+02 2.8853695978950616e-11 -2.4574903132577464e-12  1.9999999998143156e+02 -8.6251121424011936e-11 -8.7992903593679727e-11  1.9999999998065667e+02 -1.4063200371161742e-10 -8.5437522778827933e-11  1.9999999998062083e+02 -6.3851882986738252e-11 -4.8454309785246017e-11  1.9999999998081918e+02 2.3458111270502372e-11 1.0697612254912687e-10  1.9999999998067656e+02 -7.2785291929856607e-11 -5.3772890241222875e-11  1.9999999998143065e+02 -1.0832706103095883e-10 -1.3216508844354521e-10  1.9999999998139572e+02 -1.3058461060139230e-10 -1.1641233606038451e-10  1.9999999998244994e+02 1.1725814676157487e-10 1.0935263606257608e-10  1.9999999998144401e+02 -1.4999344274691452e-11 -1.4530612072693303e-11  1.9999999998081404e+02 6.2038594965435174e-10 3.2642921887639052e-11  1.9999999998047409e+02 -1.3806672004642788e-10 -7.6914861887636120e-11  1.9999999998058345e+02 -5.5886552288504048e-11 4.6599458476556151e-11  1.9999999998142283e+02 -8.4343965622413264e-11 -7.7072177909432566e-11  1.9999999998069285e+02 -7.6060901347828546e-11 -1.9445753470573094e-11  1.9999999998081236e+02 2.6359998622600629e-11 9.0573533986943369e-11  1.9999999998062572e+02 5.5607041837837775e-11 1.0559133856583488e-11  1.9999999998144412e+02 -3.5069502389252624e-10 1.3256484841413073e-11  1.9999999998080253e+02 5.0209599858629934e-10 7.0772859929244833e-11  1.9999999998064169e+02 -7.4734701455307044e-11 5.0583699221020822e-11  1.9999999998142636e+02 -2.8922740273158116e-11 -1.2326143773909941e-10  1.9999999998149733e+02 -1.0063664623810140e-11 -7.6510744046470340e-11  1.9999999998130320e+02 2.3487247908740558e-11 -1.8950921480014737e-10  1.9999999998051626e+02 -6.0237411883689070e-11 -1.0357160396609228e-10  1.9999999998144290e+02 -6.8461630850508152e-11 -7.9285521404567534e-11  1.9999999998058078e+02 3.2062165917785711e-11 -2.0977701785191056e-11  1.9999999998078951e+02 9.8939514430641536e-11 5.0776297615783756e-11  1.9999999998058124e+02 2.2505436966848430e-12 1.5807151209249406e-11  1.9999999998143346e+02 -6.2924218387764286e-11 -1.5772403287220493e-10  1.9999999998140342e+02 -1.5223964773323638e-10 -1.2160904973804634e-10  1.9999999998141888e+02 -9.3975781109174589e-11 -1.1322857491529963e-10  1.9999999998057203e+02 -8.7852661752322