<?xml version="1.0"?>
<VTKFile type="UnstructuredGrid"  version="0.1"  >
<UnstructuredGrid>
<Piece  NumberOfPoints="3924" NumberOfCells="19102">
<Points>
<DataArray  type="Float64"  NumberOfComponents="3"  format="ascii">0 0 25  1.25 1.25 26.25  1.25 1.25 25  1.25 0 25  2.5 0 25  2.5 1.25 26.25  2.5 1.25 25  2.5 2.5 25  2.5 2.5 26.25  2.5 2.5 27.5  1.25 0 26.25  2.5 0 26.25  2.5 0 27.5  0 0 26.25  0 0 27.5  0 1.25 25  0 2.5 25  1.25 2.5 26.25  1.25 2.5 25  0 1.25 26.25  0 2.5 26.25  0 2.5 27.5  3.75 1.25 26.25  3.75 1.25 25  3.75 0 25  5 0 25  5 1.25 26.25  5 1.25 25  5 2.5 25  5 2.5 26.25  5 2.5 27.5  3.75 0 26.25  5 0 26.25  5 0 27.5  3.75 0 27.5  3.75 2.5 26.25  3.75 2.5 25  3.75 2.5 27.5  6.25 1.25 26.25  6.25 0 26.25  6.25 1.25 25  6.25 2.5 26.25  6.25 2.5 25  7.5 2.5 25  1.25 3.75 26.25  1.25 3.75 25  2.5 3.75 26.25  2.5 3.75 25  2.5 5 25  2.5 5 26.25  2.5 5 27.5  0 3.75 25  0 5 25  1.25 5 26.25  1.25 5 25  0 3.75 26.25  0 5 26.25  0 5 27.5  1.25 5 27.5  3.75 3.75 26.25  3.75 3.75 25  5 3.75 26.25  5 3.75 25  5 5 25  5 5 26.25  5 5 27.5  5 3.75 27.5  3.75 5 26.25  3.75 5 25  3.75 5 27.5  6.25 3.75 26.25  6.25 3.75 25  7.5 3.75 25  7.5 5 25  6.25 5 26.25  6.25 5 25  1.25 6.25 26.25  1.25 6.25 25  2.5 6.25 26.25  2.5 6.25 25  2.5 7.5 25  2.5 7.5 26.25  2.5 7.5 27.5  0 6.25 25  0 7.5 25  1.25 7.5 26.25  1.25 7.5 25  0 6.25 26.25  0 6.25 27.5  0 7.5 27.5  0 7.5 26.25  3.75 6.25 26.25  3.75 6.25 25  5 6.25 26.25  5 6.25 25  5 7.5 25  5 7.5 26.25  5 7.5 27.5  5 6.25 27.5  3.75 7.5 26.25  3.75 7.5 25  6.25 6.25 26.25  6.25 6.25 25  7.5 6.25 26.25  7.5 6.25 25  7.5 7.5 25  6.25 7.5 26.25  6.25 7.5 25  1.25 8.75 26.25  1.25 8.75 25  2.5 8.75 26.25  2.5 8.75 25  2.5 10 25  0 8.75 25  0 10 25  1.25 10 25  0 8.75 26.25  3.75 8.75 26.25  3.75 8.75 25  5 8.75 26.25  5 8.75 25  5 10 25  3.75 10 25  6.25 8.75 26.25  6.25 8.75 25  7.5 8.75 26.25  7.5 8.75 25  7.5 10 25  6.25 10 25  3.75 11.25 26.25  3.75 11.25 25  5 11.25 25  5 12.5 25  2.5 11.25 25  2.5 12.5 25  3.75 12.5 25  6.25 11.25 26.25  6.25 11.25 25  7.5 11.25 26.25  7.5 11.25 25  7.5 12.5 25  6.25 12.5 25  17.5 0 22.5  18.75 1.25 23.75  18.75 1.25 22.5  18.75 0 22.5  20 0 22.5  20 1.25 23.75  20 1.25 22.5  20 2.5 22.5  20 2.5 23.75  20 2.5 25  18.75 0 23.75  20 0 23.75  20 0 25  17.5 0 23.75  17.5 0 25  18.75 0 25  17.5 1.25 22.5  17.5 2.5 22.5  18.75 2.5 23.75  18.75 2.5 22.5  17.5 1.25 23.75  17.5 1.25 25  17.5 2.5 25  17.5 2.5 23.75  18.75 2.5 25  21.25 1.25 23.75  21.25 1.25 22.5  21.25 0 22.5  22.5 0 22.5  22.5 1.25 23.75  22.5 1.25 22.5  22.5 2.5 22.5  22.5 2.5 23.75  22.5 2.5 25  21.25 0 23.75  22.5 0 23.75  22.5 0 25  22.5 1.25 25  21.25 2.5 23.75  21.25 2.5 22.5  23.75 1.25 23.75  23.75 0 23.75  23.75 1.25 25  23.75 0 25  18.75 3.75 23.75  20 3.75 23.75  17.5 3.75 23.75  21.25 3.75 23.75  21.25 3.75 22.5  22.5 3.75 22.5  22.5 5 22.5  6.25 0 25  7.5 0 25  7.5 1.25 26.25  7.5 1.25 25  7.5 0 26.25  8.75 1.25 26.25  8.75 1.25 25  8.75 0 25  10 0 25  10 1.25 26.25  10 1.25 25  10 2.5 25  10 2.5 26.25  10 2.5 27.5  8.75 0 26.25  10 0 26.25  10 0 27.5  10 1.25 27.5  8.75 2.5 26.25  8.75 2.5 25  11.25 1.25 26.25  11.25 1.25 25  11.25 0 25  12.5 0 25  12.5 1.25 26.25  12.5 1.25 25  12.5 2.5 25  11.25 0 26.25  12.5 0 26.25  12.5 0 27.5  11.25 0 27.5  11.25 2.5 26.25  11.25 2.5 25  13.75 1.25 26.25  13.75 1.25 25  13.75 0 25  15 0 25  15 1.25 26.25  15 1.25 25  15 2.5 25  13.75 0 26.25  15 0 26.25  15 0 27.5  13.75 0 27.5  13.75 2.5 25  16.25 1.25 26.25  16.25 1.25 25  16.25 0 25  16.25 0 26.25  16.25 2.5 25  23.75 1.25 26.25  23.75 0 26.25  8.75 3.75 26.25  8.75 3.75 25  10 3.75 26.25  10 3.75 25  10 5 25  8.75 5 26.25  8.75 5 25  11.25 3.75 26.25  11.25 3.75 25  12.5 3.75 25  12.5 5 25  11.25 5 25  8.75 6.25 26.25  8.75 6.25 25  10 6.25 25  10 7.5 25  8.75 7.5 25  8.75 8.75 26.25  8.75 8.75 25  10 8.75 26.25  10 8.75 25  10 10 25  8.75 10 26.25  8.75 10 25  11.25 8.75 26.25  11.25 8.75 25  11.25 7.5 25  12.5 7.5 25  11.25 10 25  12.5 10 25  8.75 11.25 26.25  8.75 11.25 25  10 11.25 25  10 12.5 25  8.75 12.5 25  0 0 0  1.25 1.25 1.25  1.25 1.25 0  1.25 0 0  2.5 0 0  2.5 1.25 1.25  2.5 1.25 0  2.5 2.5 0  2.5 2.5 1.25  2.5 2.5 2.5  1.25 0 1.25  2.5 0 1.25  2.5 0 2.5  2.5 1.25 2.5  0 0 1.25  0 0 2.5  1.25 1.25 2.5  1.25 0 2.5  0 1.25 0  0 2.5 0  1.25 2.5 1.25  1.25 2.5 0  0 1.25 1.25  0 1.25 2.5  0 2.5 2.5  1.25 2.5 2.5  0 2.5 1.25  3.75 1.25 1.25  3.75 1.25 0  3.75 0 0  5 0 0  5 1.25 1.25  5 1.25 0  5 2.5 0  5 2.5 1.25  5 2.5 2.5  3.75 0 1.25  5 0 1.25  5 0 2.5  5 1.25 2.5  3.75 1.25 2.5  3.75 0 2.5  3.75 2.5 1.25  3.75 2.5 0  3.75 2.5 2.5  6.25 1.25 1.25  6.25 1.25 0  6.25 0 0  7.5 0 0  7.5 1.25 1.25  7.5 1.25 0  7.5 2.5 0  7.5 2.5 1.25  7.5 2.5 2.5  6.25 0 1.25  7.5 0 1.25  7.5 0 2.5  7.5 1.25 2.5  6.25 1.25 2.5  6.25 0 2.5  6.25 2.5 1.25  6.25 2.5 0  6.25 2.5 2.5  8.75 1.25 1.25  8.75 1.25 0  8.75 0 0  10 0 0  10 1.25 1.25  10 1.25 0  10 2.5 0  10 2.5 1.25  10 2.5 2.5  8.75 0 1.25  10 0 1.25  10 0 2.5  10 1.25 2.5  8.75 1.25 2.5  8.75 0 2.5  8.75 2.5 1.25  8.75 2.5 0  8.75 2.5 2.5  1.25 3.75 1.25  1.25 3.75 0  2.5 3.75 1.25  2.5 3.75 0  2.5 5 0  2.5 5 1.25  2.5 5 2.5  2.5 3.75 2.5  1.25 3.75 2.5  0 3.75 0  0 5 0  1.25 5 1.25  1.25 5 0  0 3.75 1.25  0 3.75 2.5  0 5 2.5  1.25 5 2.5  0 5 1.25  3.75 3.75 1.25  3.75 3.75 0  5 3.75 1.25  5 3.75 0  5 5 0  5 5 1.25  5 5 2.5  5 3.75 2.5  3.75 3.75 2.5  3.75 5 1.25  3.75 5 0  3.75 5 2.5  6.25 3.75 1.25  6.25 3.75 0  7.5 3.75 1.25  7.5 3.75 0  7.5 5 0  7.5 5 1.25  7.5 5 2.5  7.5 3.75 2.5  6.25 3.75 2.5  6.25 5 1.25  6.25 5 0  6.25 5 2.5  8.75 3.75 1.25  8.75 3.75 0  10 3.75 1.25  10 3.75 0  10 5 0  10 5 1.25  10 5 2.5  10 3.75 2.5  8.75 3.75 2.5  8.75 5 1.25  8.75 5 0  8.75 5 2.5  1.25 6.25 1.25  1.25 6.25 0  2.5 6.25 1.25  2.5 6.25 0  2.5 7.5 0  2.5 7.5 1.25  2.5 7.5 2.5  2.5 6.25 2.5  1.25 6.25 2.5  0 6.25 0  0 7.5 0  1.25 7.5 1.25  1.25 7.5 0  0 6.25 1.25  0 6.25 2.5  0 7.5 2.5  1.25 7.5 2.5  0 7.5 1.25  3.75 6.25 1.25  3.75 6.25 0  5 6.25 1.25  5 6.25 0  5 7.5 0  5 7.5 1.25  5 7.5 2.5  5 6.25 2.5  3.75 6.25 2.5  3.75 7.5 1.25  3.75 7.5 0  3.75 7.5 2.5  6.25 6.25 1.25  6.25 6.25 0  7.5 6.25 1.25  7.5 6.25 0  7.5 7.5 0  7.5 7.5 1.25  7.5 7.5 2.5  7.5 6.25 2.5  6.25 6.25 2.5  6.25 7.5 1.25  6.25 7.5 0  6.25 7.5 2.5  8.75 6.25 1.25  8.75 6.25 0  10 6.25 1.25  10 6.25 0  10 7.5 0  10 7.5 1.25  10 7.5 2.5  10 6.25 2.5  8.75 6.25 2.5  8.75 7.5 1.25  8.75 7.5 0  8.75 7.5 2.5  1.25 8.75 1.25  1.25 8.75 0  2.5 8.75 1.25  2.5 8.75 0  2.5 10 0  2.5 10 1.25  2.5 10 2.5  2.5 8.75 2.5  1.25 8.75 2.5  0 8.75 0  0 10 0  1.25 10 1.25  1.25 10 0  0 8.75 1.25  0 8.75 2.5  0 10 2.5  1.25 10 2.5  0 10 1.25  3.75 8.75 1.25  3.75 8.75 0  5 8.75 1.25  5 8.75 0  5 10 0  5 10 1.25  5 10 2.5  5 8.75 2.5  3.75 8.75 2.5  3.75 10 1.25  3.75 10 0  3.75 10 2.5  6.25 8.75 1.25  6.25 8.75 0  7.5 8.75 1.25  7.5 8.75 0  7.5 10 0  7.5 10 1.25  7.5 10 2.5  7.5 8.75 2.5  6.25 8.75 2.5  6.25 10 1.25  6.25 10 0  6.25 10 2.5  8.75 8.75 1.25  8.75 8.75 0  10 8.75 1.25  10 8.75 0  10 10 0  10 10 1.25  10 10 2.5  10 8.75 2.5  8.75 8.75 2.5  8.75 10 1.25  8.75 10 0  8.75 10 2.5  1.25 11.25 1.25  1.25 11.25 0  2.5 11.25 1.25  2.5 11.25 0  2.5 12.5 0  2.5 12.5 1.25  2.5 12.5 2.5  2.5 11.25 2.5  1.25 11.25 2.5  0 11.25 1.25  0 11.25 2.5  3.75 11.25 1.25  3.75 11.25 0  5 11.25 1.25  5 11.25 0  5 11.25 2.5  3.75 11.25 2.5  6.25 11.25 1.25  6.25 11.25 0  7.5 11.25 1.25  7.5 11.25 0  7.5 11.25 2.5  6.25 11.25 2.5  8.75 11.25 1.25  8.75 11.25 0  8.75 11.25 2.5  1.25 1.25 3.75  2.5 1.25 3.75  2.5 2.5 3.75  2.5 2.5 5  1.25 0 3.75  2.5 0 3.75  2.5 0 5  2.5 1.25 5  0 0 3.75  0 0 5  1.25 1.25 5  1.25 0 5  1.25 2.5 3.75  0 1.25 3.75  0 1.25 5  0 2.5 5  1.25 2.5 5  0 2.5 3.75  3.75 1.25 3.75  5 1.25 3.75  5 2.5 3.75  5 2.5 5  3.75 0 3.75  5 0 3.75  5 0 5  5 1.25 5  3.75 1.25 5  3.75 0 5  3.75 2.5 3.75  3.75 2.5 5  6.25 1.25 3.75  7.5 1.25 3.75  7.5 2.5 3.75  7.5 2.5 5  6.25 0 3.75  7.5 0 3.75  7.5 0 5  7.5 1.25 5  6.25 1.25 5  6.25 0 5  6.25 2.5 3.75  6.25 2.5 5  8.75 1.25 3.75  10 1.25 3.75  10 2.5 3.75  10 2.5 5  8.75 0 3.75  10 0 3.75  10 0 5  10 1.25 5  8.75 1.25 5  8.75 0 5  8.75 2.5 3.75  8.75 2.5 5  1.25 3.75 3.75  2.5 3.75 3.75  2.5 5 3.75  2.5 5 5  2.5 3.75 5  1.25 3.75 5  1.25 5 3.75  0 3.75 3.75  0 3.75 5  0 5 5  1.25 5 5  0 5 3.75  3.75 3.75 3.75  5 3.75 3.75  5 5 3.75  5 5 5  5 3.75 5  3.75 3.75 5  3.75 5 3.75  3.75 5 5  6.25 3.75 3.75  7.5 3.75 3.75  7.5 5 3.75  7.5 5 5  7.5 3.75 5  6.25 3.75 5  6.25 5 3.75  6.25 5 5  8.75 3.75 3.75  10 3.75 3.75  10 5 3.75  10 5 5  10 3.75 5  8.75 3.75 5  8.75 5 3.75  8.75 5 5  1.25 6.25 3.75  2.5 6.25 3.75  2.5 7.5 3.75  2.5 7.5 5  2.5 6.25 5  1.25 6.25 5  1.25 7.5 3.75  0 6.25 3.75  0 6.25 5  0 7.5 5  1.25 7.5 5  0 7.5 3.75  3.75 6.25 3.75  5 6.25 3.75  5 7.5 3.75  5 7.5 5  5 6.25 5  3.75 6.25 5  3.75 7.5 3.75  3.75 7.5 5  6.25 6.25 3.75  7.5 6.25 3.75  7.5 7.5 3.75  7.5 7.5 5  7.5 6.25 5  6.25 6.25 5  6.25 7.5 3.75  6.25 7.5 5  8.75 6.25 3.75  10 6.25 3.75  10 7.5 3.75  10 7.5 5  10 6.25 5  8.75 6.25 5  8.75 7.5 3.75  8.75 7.5 5  1.25 8.75 3.75  2.5 8.75 3.75  2.5 10 3.75  2.5 10 5  2.5 8.75 5  1.25 8.75 5  1.25 10 3.75  0 8.75 3.75  0 8.75 5  0 10 5  1.25 10 5  0 10 3.75  3.75 8.75 3.75  5 8.75 3.75  5 10 3.75  5 10 5  5 8.75 5  3.75 8.75 5  3.75 10 3.75  3.75 10 5  6.25 8.75 3.75  7.5 8.75 3.75  7.5 10 3.75  7.5 10 5  7.5 8.75 5  6.25 8.75 5  6.25 10 3.75  6.25 10 5  8.75 8.75 3.75  10 8.75 3.75  10 10 3.75  10 10 5  10 8.75 5  8.75 8.75 5  8.75 10 3.75  8.75 10 5  1.25 11.25 3.75  2.5 11.25 3.75  2.5 12.5 3.75  2.5 12.5 5  2.5 11.25 5  1.25 11.25 5  0 11.25 3.75  0 11.25 5  0 12.5 5  1.25 12.5 5  3.75 11.25 3.75  5 11.25 3.75  5 11.25 5  3.75 11.25 5  6.25 11.25 3.75  7.5 11.25 3.75  7.5 11.25 5  6.25 11.25 5  8.75 11.25 3.75  8.75 11.25 5  1.25 1.25 6.25  2.5 1.25 6.25  2.5 2.5 6.25  2.5 2.5 7.5  1.25 0 6.25  2.5 0 6.25  2.5 0 7.5  2.5 1.25 7.5  0 0 6.25  0 0 7.5  1.25 1.25 7.5  1.25 0 7.5  1.25 2.5 6.25  0 1.25 6.25  0 1.25 7.5  0 2.5 7.5  1.25 2.5 7.5  0 2.5 6.25  3.75 1.25 6.25  5 1.25 6.25  5 2.5 6.25  5 2.5 7.5  3.75 
[...]
<PointData  Vectors="u"> 
<DataArray  type="Float64"  Name="u"  NumberOfComponents="3" format="ascii">2.0000000000057130e+02 6.6272419423211514e-10 -1.3540680742339945e-10  1.9999999999898174e+02 -5.4498894900334050e-11 -1.0624961104313337e-10  1.9999999999897983e+02 -2.8874493581862399e-10 -1.5679938663885093e-10  1.9999999999900126e+02 -1.9441916591410333e-10 -1.9574791743666973e-10  1.9999999999830774e+02 6.9399867167956247e-10 -1.1068910398512725e-10  1.9999999999795719e+02 -6.3007708726611973e-11 -1.5363982906350105e-10  1.9999999999811010e+02 -1.0572173123809111e-10 -1.0914337316082069e-11  1.9999999999824675e+02 1.6054201641652126e-10 -7.0630382862717507e-12  1.9999999999823328e+02 -3.9215092947811572e-11 -2.9650872629488958e-11  1.9999999999821299e+02 1.2450415108735995e-10 1.0789883314899588e-10  1.9999999999896423e+02 -3.0016737698866787e-10 2.7814332209859122e-11  1.9999999999815506e+02 2.3372098437283097e-11 -3.4691733679486277e-11  1.9999999999825849e+02 5.1277314686585976e-10 1.3205510874899829e-10  2.0000000000002188e+02 -4.0344929878940246e-11 -9.2173411390792693e-11  2.0000000000058068e+02 6.2511912918667669e-10 1.3608449392528094e-10  2.0000000000000017e+02 -1.5492888461447156e-10 7.1519484981414940e-11  2.0000000000056443e+02 2.2173928747565841e-10 -6.7338210230787072e-11  1.9999999999909056e+02 -7.0549350842481946e-11 -1.1909632512441207e-10  1.9999999999903198e+02 2.5897028540199316e-11 3.9901161273072273e-11  1.9999999999973892e+02 -1.1315925578808579e-10 -1.6739417039578270e-11  2.0000000000003280e+02 5.9083860164605147e-12 -3.1562147862114050e-11  2.0000000000058628e+02 1.9782710382617785e-10 1.4362013554590816e-10  1.9999999999716402e+02 -1.3815941876923460e-10 -1.1406563338170578e-10  1.9999999999703175e+02 -3.1630536561137824e-10 -1.1357611369471516e-10  1.9999999999716090e+02 -8.6241547423723707e-11 -5.4829050124236887e-11  1.9999999999647352e+02 7.0825416479467129e-10 -1.1200302640749142e-10  1.9999999999609238e+02 -8.5518225819906757e-11 -1.0812279463012376e-10  1.9999999999626854e+02 -8.0294463564860805e-11 -7.9199758787910224e-11  1.9999999999651615e+02 1.5026126414590058e-10 -7.6798996226644578e-11  1.9999999999635011e+02 6.5372903523445118e-11 -9.3427186963981527e-12  1.9999999999647997e+02 1.4452603109977402e-10 1.2380811916280030e-10  1.9999999999717056e+02 -4.0843958726119224e-10 1.4551472517614992e-11  1.9999999999620618e+02 1.4226748591715352e-10 -2.6416286364040936e-11  1.9999999999647181e+02 5.8637236214105318e-10 1.0669911579281740e-10  1.9999999999719040e+02 1.3946727846431692e-11 -8.1280042525933351e-11  1.9999999999711733e+02 -1.5612511909806230e-10 -8.8518192265928419e-11  1.9999999999719427e+02 -7.4329057901917578e-11 5.1990165524450976e-11  1.9999999999726376e+02 7.1523120967038469e-11 -1.1308378101863093e-10  1.9999999999537883e+02 -1.4974158517286960e-10 -2.8572434082559004e-11  1.9999999999521916e+02 -5.6187223183668316e-10 3.2069551419586646e-12  1.9999999999533861e+02 -1.1709886887119984e-10 1.2768894111417670e-10  1.9999999999532119e+02 -1.9265093633582892e-10 4.7009839139700406e-11  1.9999999999539071e+02 -4.7880117211167446e-11 8.9860326338896706e-11  1.9999999999470538e+02 1.2307413974072789e-10 -4.4818796723387349e-11  1.9999999999902639e+02 -6.0751779780285349e-11 -3.5626681914946577e-11  1.9999999999914101e+02 -2.0528515207031817e-10 -1.2124805741422703e-10  1.9999999999811027e+02 -2.3635346191596916e-10 -2.5485917086161843e-10  1.9999999999815407e+02 -3.1749363066011592e-11 3.1092201851456738e-11  1.9999999999819201e+02 1.8585175500654111e-10 -2.1501670289483460e-11  1.9999999999818894e+02 -5.1299588195789277e-11 -1.3974942561519976e-11  1.9999999999817598e+02 1.7441481638712028e-10 1.2481830722040716e-10  2.0000000000005426e+02 -1.6768254780916728e-11 1.3112174046381054e-10  2.0000000000058736e+02 1.5458177988275528e-10 -6.9119000444354104e-11  1.9999999999904151e+02 -9.2692173856753120e-11 -1.1465062414179748e-10  1.9999999999900388e+02 -2.4901766886575477e-11 6.0528409302582451e-11  1.9999999999964226e+02 -5.3389527974257049e-11 -4.4836687660350242e-11  2.0000000000006409e+02 -4.1319286793112062e-11 -6.9164766103573382e-12  2.0000000000057830e+02 1.7078921475561373e-10 1.0663920061004547e-10  1.9999999999905700e+02 -5.8197734667597504e-11 8.9242124590332992e-13  1.9999999999720478e+02 -5.8788427989853565e-11 -8.6555278904451312e-11  1.9999999999709357e+02 -2.3188437900894767e-10 -1.0007840884275958e-10  1.9999999999624359e+02 -7.4480202419234868e-11 -6.2522441386424378e-11  1.9999999999629952e+02 -2.3313445534169199e-11 7.2496426342333944e-11  1.9999999999650370e+02 1.8983336887195857e-10 -2.3138357323338599e-11  1.9999999999639255e+02 2.6859892707713531e-11 -4.7875942756066435e-12  1.9999999999647432e+02 1.3288861906432795e-10 8.6054478560440833e-11  1.9999999999633576e+02 6.6349810761680464e-12 -4.3339015383234066e-11  1.9999999999717528e+02 -1.0514384048585905e-10 -9.4741319382766758e-11  1.9999999999728971e+02 -2.4927313664706528e-11 5.8200494038657049e-11  1.9999999999728789e+02 2.2208143507527051e-11 -2.4309577463492920e-11  1.9999999999537138e+02 -1.8985246763210793e-11 -1.2449132143334233e-10  1.9999999999523735e+02 -2.0547369953505577e-10 -1.2492623403263375e-11  1.9999999999443395e+02 -1.8097357096872343e-11 1.1313037551046850e-10  1.9999999999466004e+02 1.9474341010078638e-10 -8.2567635491417323e-12  1.9999999999535001e+02 -1.7672445132843969e-10 -8.7703041384770283e-11  1.9999999999542780e+02 -2.7832816211565051e-11 9.8925039994420726e-11  1.9999999999900083e+02 -4.1020707516703991e-11 -3.1139521372627363e-11  1.9999999999911552e+02 -1.8090839817422783e-10 -1.4774718267552622e-10  1.9999999999814966e+02 -2.0029367598191172e-10 -1.7435871786235640e-10  1.9999999999819809e+02 -4.1109831966287802e-11 -2.9651890721658908e-11  1.9999999999820741e+02 2.1587171884438294e-10 -2.0622298594211656e-11  1.9999999999815839e+02 8.0221090303671536e-12 1.5614590968196856e-11  1.9999999999818178e+02 1.8386109954551953e-10 1.2013924618292957e-10  2.0000000000004940e+02 -1.9902794440877745e-13 1.0038366789412872e-10  2.0000000000058603e+02 1.4663438627772333e-10 -7.1019996977531754e-11  1.9999999999906080e+02 -1.2920122872453191e-10 -1.3131051128886998e-10  1.9999999999897821e+02 -3.2316207134837477e-11 7.4403792851132520e-11  1.9999999999960724e+02 -3.3218869856120356e-11 1.9409985941810580e-11  1.9999999999999352e+02 -2.7832628213438881e-11 -1.1845182701419066e-10  2.0000000000057170e+02 1.7778246675907529e-10 1.0708773716250702e-10  2.0000000000007185e+02 -6.6252293352705447e-11 -3.9244708680907690e-12  1.9999999999723860e+02 -3.5518444585420804e-11 -9.1010897779912099e-11  1.9999999999710329e+02 -1.5978273197755274e-10 -5.2575377513887210e-11  1.9999999999617106e+02 -9.5240931982639567e-11 -9.7232455990857863e-11  1.9999999999629927e+02 -1.8825424207752159e-11 8.2433640860820330e-11  1.9999999999644311e+02 1.0291254362106747e-10 -3.0604939072955570e-11  1.9999999999631439e+02 -2.5096919303377186e-11 2.4750959934181843e-11  1.9999999999645939e+02 1.2203000253934511e-10 9.2812229501927924e-11  1.9999999999635662e+02 3.4867019739164850e-11 -3.7016080883520302e-11  1.9999999999716565e+02 -1.5704993582588208e-10 -8.6174866805700260e-11  1.9999999999723522e+02 -6.5386470507050908e-11 4.9054333344305162e-11  1.9999999999535854e+02 -9.6537971527857859e-11 -9.3093765794621783e-11  1.9999999999521762e+02 -2.2724352738431944e-10 -5.5572818285275038e-11  1.9999999999442204e+02 -1.1883015286220233e-10 -1.1439310682763449e-10  1.9999999999446416e+02 -8.4713310945245958e-11 9.2576627076435472e-11  1.9999999999469844e+02 1.7088034427576922e-10 1.1138700062877083e-11  1.9999999999534205e+02 -1.2610662410050726e-10 -5.0553422519013145e-11  1.9999999999542723e+02 -6.3217157361823078e-11 8.8887418407706453e-11  1.9999999999903241e+02 -8.5742845494848381e-11 -5.5045919200838313e-12  1.9999999999913240e+02 -2.4336444595154151e-10 -6.8042791517732378e-11  1.9999999999808736e+02 -2.5405329334494561e-10 -2.3012557101606963e-10  1.9999999999819460e+02 -7.2331312991881039e-12 -8.9754881775915681e-12  1.9999999999820170e+02 2.1332048233545428e-10 -3.8773761886240215e-11  2.0000000000004113e+02 3.2836856831344845e-12 1.0884057745116244e-10  2.0000000000057702e+02 1.6523709237396452e-10 -7.6581385198872004e-11  1.9999999999905003e+02 -1.4296585297368837e-11 4.6870400272364139e-11  1.9999999999967002e+02 -3.4803950212450656e-11 4.3690278379728406e-11  1.9999999999718818e+02 -6.2438573091877707e-11 -1.0672188419736552e-10  1.9999999999705011e+02 -1.9513905080420685e-10 -4.6708934142987977e-11  1.9999999999616787e+02 -7.0644407921861107e-11 -6.8107861996906414e-11  1.9999999999625712e+02 5.1416707649996626e-11 5.1454010973068857e-11  1.9999999999647204e+02 1.6415007117609261e-10 -3.3874302276429390e-12  1.9999999999725605e+02 -5.1376541838556687e-11 6.1896447811387924e-11  1.9999999999539074e+02 -4.1019156961661583e-11 -7.5975111607859484e-11  1.9999999999527247e+02 -1.5519000426178050e-10 -3.3455390864832460e-11  1.9999999999442974e+02 -1.2860446596265870e-10 -1.0769846400343836e-10  1.9999999999445146e+02 -2.8165793431802810e-11 1.1606191512935025e-10  1.9999999999464907e+02 1.2509821874240476e-10 -3.2455467467504502e-12  1.9999999999539725e+02 -4.8792877681654443e-11 1.1133108774105421e-10  1.9999999999721061e+02 -4.3422605135611326e-11 -1.0808959147996073e-10  1.9999999999704380e+02 -2.2100711548500341e-10 -5.3914126419463452e-11  1.9999999999627036e+02 -3.1848317354908805e-11 7.4562852152646066e-11  1.9999999999645567e+02 1.2553764775755073e-10 -8.2164980926571610e-12  1.9999999999818326e+02 -7.6983274669664142e-11 -4.2455000905675345e-11  1.9999999999822850e+02 1.7117113422911260e-10 1.0608486555661177e-11  1.9999999999720114e+02 -4.6586084716117946e-11 4.8515609779724469e-11  1.9999999999535518e+02 -8.2220055172008978e-11 -9.1102506983726172e-11  1.9999999999519372e+02 -2.6528425385221692e-10 -1.1529728612151551e-11  1.9999999999438788e+02 -1.2889796607600365e-10 -1.3145194833425597e-10  1.9999999999447979e+02 4.7796018036020434e-12 1.1896686857162332e-10  1.9999999999469756e+02 1.4935765360578761e-10 -4.8786163169006097e-12  1.9999999999536519e+02 -1.7883995360251206e-11 1.0948515341932368e-10  1.9999999998741103e+02 6.4710663238320323e-10 1.2207349027514730e-11  1.9999999998652660e+02 -6.7911581633146778e-11 -1.0128153084844443e-10  1.9999999998657498e+02 -2.3973925915342464e-10 -1.1317619002233000e-10  1.9999999998655602e+02 -1.4219849842283535e-10 -2.3622966041170535e-11  1.9999999998582047e+02 7.0978800943053796e-10 -2.8825953985261250e-11  1.9999999998550652e+02 -8.8936152691692209e-11 -9.6997409094402490e-11  1.9999999998562475e+02 -8.2134150297605545e-11 8.2595760498819619e-12  1.9999999998579170e+02 1.4010188609463179e-10 -3.5287624804957908e-11  1.9999999998575052e+02 -9.7904179888346814e-11 8.4060398211627567e-12  1.9999999998575393e+02 1.4703283337150533e-10 1.1867806588054205e-10  1.9999999998658629e+02 -2.4742031304363670e-10 2.0967888415837519e-11  1.9999999998565787e+02 7.6859930896017451e-11 -2.1853810856135782e-11  1.9999999998580509e+02 5.6447891632554424e-10 1.3961433356737731e-10  1.9999999998756743e+02 4.7579879121342186e-12 -3.1099622654871539e-11  1.9999999998739960e+02 6.4449122676642568e-10 1.2930423827453213e-10  1.9999999998658205e+02 5.3498759422509533e-11 1.7877787953266024e-11  1.9999999998759355e+02 -3.1155838399593435e-11 9.1972835694004865e-11  1.9999999998746736e+02 9.2383069353215210e-11 5.6175403974140825e-11  1.9999999998667124e+02 -1.2594199255636767e-10 -1.1958369773075358e-10  1.9999999998657367e+02 -1.9836847161946511e-11 5.7788335926666061e-11  1.9999999998756564e+02 -1.9417789924558385e-10 -1.2312072725801614e-10  1.9999999998752395e+02 -7.8827677935301310e-11 -1.1580909589718598e-10  1.9999999998739727e+02 1.6487794667496074e-10 8.3523466736520451e-11  1.9999999998751741e+02 -7.4372943142559315e-11 -8.6082705207834615e-11  1.9999999998664325e+02 -1.1352657690311465e-11 -4.4330407968368885e-11  1.9999999998480556e+02 -1.4552644216701696e-10 -4.2753870848245108e-11  1.9999999998467294e+02 -2.6842894919515817e-10 -1.5037575376603679e-10  1.9999999998483116e+02 -7.5768581096635248e-11 -2.1315098849854397e-11  1.9999999998413739e+02 6.5177358096227186e-10 -2.7443582695862538e-11  1.9999999998377641e+02 -1.1960004667987018e-10 -6.6003220478711821e-11  1.9999999998398152e+02 -7.2033980821726034e-11 -5.0410288145242977e-12  1.9999999998416371e+02 1.4249755084496240e-10 -2.2001172691241311e-11  1.9999999998400369e+02 4.9074818373477624e-11 -5.5432854329318923e-12  1.9999999998414262e+02 1.0259071772049493e-10 1.4920966456412356e-10  1.9999999998484969e+02 -3.5022648307251376e-10 9.7504804572572372e-11  1.9999999998386630e+02 1.4295631429216639e-10 5.5293871372099537e-11  1.9999999998410814e+02 5.6406658727773620e-10 1.1457174876445849e-10  1.9999999998404962e+02 -4.9604656604559466e-11 9.5990188273166214e-11  1.9999999998477904e+02 -1.4853337093777075e-10 -8.3943497109819037e-11  1.9999999998482244e+02 -8.8204317790657778e-11 7.2380012296005607e-11  1.9999999998318779e+02 -1.2864961647480881e-10 -3.5353261047766884e-11  1.9999999998297076e+02 -4.7183547773983839e-10 -6.4714981402501750e-12  1.9999999998306490e+02 -8.4311222776515359e-11 -4.7489738995548379e-11  1.9999999998310139e+02 -5.3379667562274615e-11 -4.3726402223028028e-11  1.9999999998659234e+02 -3.4930966553672178e-11 2.8773980566584500e-11  1.9999999998574594e+02 -1.8229606779838673e-10 9.4341543615978435e-12  1.9999999998758850e+02 -8.7335584504543173e-11 -1.4828802660930168e-11  1.9999999998480845e+02 -2.0464661031956736e-11 -7.9896632140705074e-11  1.9999999998486922e+02 -1.5818898007022014e-10 -2.6220104196994959e-11  1.9999999998393835e+02 9.9639521154018419e-12 4.7304284600973713e-11  1.9999999998408904e+02 1.3053756194693902e-10 -4.2338693326158192e-12  1.9999999999538514e+02 -1.2737747858412495e-12 2.6347241839857726e-11  1.9999999999470117e+02 7.1220996887721072e-10 -6.9194315706999902e-11  1.9999999999457305e+02 7.7059574399524998e-12 3.8679553626751456e-12  1.9999999999450222e+02 -6.8492098267508087e-11 -2.0333741724198559e-11  1.9999999999456088e+02 3.9851407985644657e-11 8.5163838524488100e-12  1.9999999999352480e+02 -1.1938995724872621e-10 -9.8778602950649521e-11  1.9999999999336140e+02 -2.6521133040593086e-10 -9.6734450483611955e-11  1.9999999999357524e+02 -9.5843518144477993e-11 -3.5881519606929106e-11  1.9999999999287448e+02 7.2314675953943387e-10 1.6191073054475301e-11  1.9999999999250127e+02 -1.0921321112670284e-10 -1.3019917474253980e-10  1.9999999999271122e+02 -1.0766950228214256e-10 2.1108376721864182e-11  1.9999999999286786e+02 1.7104823850310851e-10 -3.4014396956584837e-11  1.9999999999273155e+02 1.0261552657660145e-11 -4.4436468061625725e-11  1.9999999999287749e+02 1.0106764269459610e-10 1.0641559413703938e-10  1.9999999999356098e+02 -3.7788604563164885e-10 5.3958361458725989e-12  1.9999999999268925e+02 4.8696538610369823e-11 -8.1407368754423692e-11  1.9999999999284805e+02 5.8773032793385081e-10 6.3262927637917371e-11  1.9999999999277028e+02 -2.2694869081117594e-11 2.0176448573594191e-11  1.9999999999347401e+02 -1.2873799484988099e-10 -1.2908669934792248e-10  1.9999999999360787e+02 -9.8296393332630913e-11 7.8239051415964787e-11  1.9999999999175887e+02 -1.4495996559204163e-10 -1.0171896808155820e-10  1.9999999999159033e+02 -2.8848507139438613e-10 -8.6666819097665139e-11  1.9999999999177575e+02 -3.3813346891918937e-11 -2.7647911221200502e-11  1.9999999999104216e+02 6.9485223373893396e-10 -1.2634400848795746e-11  1.9999999999074419e+02 -6.2988373554657357e-11 -5.8673121031501469e-11  1.9999999999086683e+02 -4.5712358036031990e-12 5.3222972472285926e-11  1.9999999999107888e+02 1.5952003221173006e-10 -2.5595697738983677e-11  1.9999999999174790e+02 -3.9340788174557154e-10 3.1340500064047350e-11  1.9999999999089874e+02 3.6138784168553191e-11 4.9462566744157074e-11  1.9999999999106424e+02 5.5723800674396374e-10 1.1683333544214168e-10  1.9999999999187202e+02 8.1658175099033739e-11 -8.9835414464327587e-11  1.9999999999174509e+02 -2.0813111766021439e-10 -9.4444845896389520e-11  1.9999999999179317e+02 -8.9551801839731814e-11 3.4689116630393717e-11  1.9999999999000374e+02 -1.3521764879726481e-10 -5.7663836202210281e-11  1.9999999998990523e+02 -2.6591356020391719e-10 -4.8422628568181559e-11  1.9999999999004783e+02 -3.1863673690546468e-11 2.3143161104673841e-11  1.9999999998925867e+02 7.2079015174229166e-10 2.2755394776380496e-11  1.9999999998899219e+02 -7.6475325791947849e-11 -1.2750394030182179e-10  1.9999999998924307e+02 -6.3997931832104483e-11 9.2908399028027172e-11  1.9999999998927865e+02 1.6090916111573310e-10 1.7346525164938700e-11  1.9999999999001068e+02 -3.5324016725668522e-10 3.7479036268990975e-11  1.9999999998914217e+02 7.1435318941423147e-11 -4.4491798284600316e-12  1.9999999998932037e+02 5.6149009684515478e-10 1.4704114536885268e-10  1.9999999999003424e+02 4.1988142620219056e-11 -5.9884958424219910e-11  1.9999999999004916e+02 -4.5495805205295552e-11 5.0985791264000686e-11  1.9999999998833056e+02 -1.0268276169151619e-10 -7.6013125023633486e-11  1.9999999998853400e+02 -2.7788257605224283e-10 4.4386201691807638e-11  1.9999999998839118e+02 -1.8394281546342500e-11 7.9490451325623432e-11  1.9999999998832641e+02 -4.6971595768707511e-10 5.9793881122880632e-11  1.9999999998830012e+02 -5.9200183868115489e-11 4.6343662439958135e-11  1.9999999998306660e+02 -4.3694264035960371e-11 -5.8984542588701635e-11  1.9999999998312850e+02 -3.6884344343864338e-10 4.6502368957261922e-11  1.9999999999350590e+02 -2.5289824091147483e-11 -6.7857556084608890e-11  1.9999999999347068e+02 -1.8571669729919340e-10 -4.4593227425523679e-11  1.9999999999253373e+02 -1.3564689037230204e-10 -1.3350165650153486e-10  1.9999999999263096e+02 -2.7234096805026527e-11 3.9142737178763569e-11  1.9999999999280664e+02 1.1738211714799674e-10 -3.6948430514153501e-11  1.9999999999356586e+02 -8.1800829365351513e-12 -9.9969022368697310e-11  1.9999999999361756e+02 1.3631851448478559e-12 9.5931085507740428e-11  1.9999999999177015e+02 -6.8900814751216113e-11 -1.1379760110495871e-10  1.9999999999163381e+02 -2.1068136048190826e-10 -1.5118414399360117e-10  1.9999999999086637e+02 -9.3386304989466675e-12 6.8003689798667026e-11  1.9999999999106006e+02 1.5018170091243278e-10 -4.3998707455607572e-11  1.9999999999180059e+02 -7.8993887329467581e-11 2.7567958801200393e-11  1.9999999999357652e+02 -4.0978707299174923e-11 -1.9174563293048831e-11  1.9999999999356984e+02 -2.3910003962919784e-10 -1.0482151878641344e-11  1.9999999999279262e+02 -1.3592272184631606e-11 -4.4390253834019999e-11  1.9999999999278950e+02 1.2462697967768719e-10 -1.8083211995201402e-11  1.9999999999355973e+02 -6.6264255339860137e-11 1.2058635896046244e-10  1.9999999999357399e+02 -3.9451433142524580e-11 3.7207913096356244e-11  1.9999999999354182e+02 -1.8053607057749219e-10 1.3314133235095823e-11  1.9999999999264276e+02 -2.2087609892484686e-10 -1.7639531782205926e-10  1.9999999999279461e+02 -3.8289299564468011e-11 -2.0547635418793661e-11  1.9999999999275806e+02 1.6276575545029452e-10 1.0219437965631411e-11  1.9999999999359105e+02 -6.9718068735573528e-11 -8.9332829549588507e-11  1.9999999999361398e+02 -6.7916906800046860e-11 1.0978873379192483e-10  1.9999999999179013e+02 -5.7789159238142087e-11 -4.7961199876032939e-11  1.9999999999166852e+02 -1.8927287561914202e-10 -8.7261292648436589e-11  1.9999999999181406e+02 -1.2978869568053853e-10 7.1192622682269791e-11  1.9999999999111569e+02 1.2906240988679612e-10 -3.2881784500807651e-11  1.9999999999181281e+02 -8.1604505833309534e-11 7.8488971362577444e-11  1.9999999999111640e+02 1.3340491872022485e-10 5.6669211745424945e-12  1.9999999999362095e+02 -6.0602238268241272e-11 -1.2851962748708996e-11  1.9999999999359838e+02 -1.6812924916981710e-10 -8.7876642689713536e-12  1.9999999999273794e+02 3.3085194617925059e-12 -3.6670231390495707e-12  1.9999999999277705e+02 1.7127029777795887e-10 1.3336159174879606e-11  1.9999999999359522