<?xml version="1.0"?>
<VTKFile type="UnstructuredGrid"  version="0.1"  >
<UnstructuredGrid>
<Piece  NumberOfPoints="3946" NumberOfCells="19511">
<Points>
<DataArray  type="Float64"  NumberOfComponents="3"  format="ascii">25 2.5 37.5  25 3.75 38.75  25 3.75 37.5  23.75 3.75 38.75  25 5 37.5  25 5 38.75  25 5 40  25 2.5 38.75  25 2.5 40  25 3.75 40  26.25 6.25 38.75  26.25 6.25 37.5  25 6.25 37.5  25 7.5 37.5  26.25 7.5 38.75  26.25 7.5 37.5  27.5 7.5 37.5  27.5 7.5 38.75  27.5 7.5 40  26.25 6.25 40  25 6.25 40  25 7.5 40  26.25 7.5 40  25 7.5 38.75  25 8.75 38.75  25 8.75 37.5  23.75 8.75 38.75  25 10 37.5  25 10 38.75  25 10 40  25 8.75 40  26.25 8.75 38.75  26.25 8.75 37.5  27.5 8.75 38.75  27.5 8.75 37.5  27.5 10 37.5  27.5 10 38.75  27.5 10 40  27.5 8.75 40  26.25 8.75 40  26.25 10 38.75  26.25 10 37.5  26.25 10 40  25 11.25 38.75  25 11.25 37.5  23.75 11.25 38.75  25 12.5 37.5  25 12.5 38.75  25 12.5 40  25 11.25 40  26.25 11.25 38.75  26.25 11.25 37.5  27.5 11.25 38.75  27.5 11.25 37.5  27.5 12.5 37.5  27.5 12.5 38.75  27.5 12.5 40  27.5 11.25 40  26.25 11.25 40  26.25 12.5 38.75  26.25 12.5 37.5  26.25 12.5 40  26.25 13.75 38.75  26.25 13.75 37.5  27.5 13.75 38.75  27.5 13.75 37.5  27.5 15 37.5  27.5 15 38.75  27.5 15 40  27.5 13.75 40  26.25 13.75 40  25 15 37.5  26.25 15 38.75  26.25 15 37.5  25 15 40  26.25 15 40  26.25 16.25 38.75  26.25 16.25 37.5  27.5 16.25 38.75  27.5 16.25 37.5  27.5 17.5 37.5  27.5 17.5 38.75  27.5 17.5 40  27.5 16.25 40  26.25 16.25 40  25 17.5 37.5  26.25 17.5 38.75  26.25 17.5 37.5  25 17.5 40  26.25 17.5 40  25 17.5 38.75  26.25 18.75 38.75  26.25 18.75 37.5  27.5 18.75 38.75  27.5 18.75 37.5  27.5 20 37.5  27.5 20 38.75  27.5 20 40  27.5 18.75 40  26.25 18.75 40  25 18.75 37.5  25 20 37.5  26.25 20 38.75  26.25 20 37.5  25 20 40  26.25 20 40  26.25 21.25 38.75  26.25 21.25 37.5  27.5 21.25 38.75  27.5 21.25 37.5  27.5 22.5 37.5  27.5 22.5 38.75  27.5 22.5 40  27.5 21.25 40  26.25 21.25 40  25 21.25 37.5  25 22.5 37.5  26.25 22.5 37.5  25 21.25 40  25 22.5 40  26.25 22.5 40  25 5 42.5  26.25 5 42.5  26.25 3.75 42.5  26.25 3.75 41.25  27.5 5 42.5  26.25 5 41.25  25 5 41.25  26.25 6.25 41.25  26.25 6.25 42.5  27.5 6.25 42.5  27.5 7.5 42.5  26.25 7.5 41.25  27.5 7.5 41.25  25 6.25 42.5  25 7.5 42.5  26.25 7.5 42.5  25 7.5 41.25  26.25 8.75 41.25  27.5 8.75 41.25  27.5 10 41.25  27.5 10 42.5  27.5 8.75 42.5  26.25 8.75 42.5  26.25 10 41.25  25 8.75 41.25  25 8.75 42.5  25 10 42.5  26.25 10 42.5  25 10 41.25  26.25 11.25 41.25  27.5 11.25 41.25  27.5 12.5 41.25  27.5 12.5 42.5  27.5 11.25 42.5  26.25 11.25 42.5  26.25 12.5 41.25  25 11.25 42.5  25 12.5 42.5  26.25 12.5 42.5  26.25 13.75 41.25  27.5 13.75 41.25  27.5 15 41.25  27.5 15 42.5  27.5 13.75 42.5  26.25 13.75 42.5  26.25 15 41.25  25 13.75 42.5  25 15 42.5  26.25 15 42.5  25 15 41.25  26.25 16.25 41.25  27.5 16.25 41.25  27.5 17.5 41.25  27.5 17.5 42.5  27.5 16.25 42.5  26.25 16.25 42.5  26.25 17.5 41.25  25 17.5 42.5  26.25 17.5 42.5  26.25 18.75 41.25  27.5 18.75 41.25  27.5 20 41.25  27.5 20 42.5  27.5 18.75 42.5  26.25 18.75 42.5  26.25 20 41.25  25 20 42.5  26.25 20 42.5  26.25 21.25 41.25  27.5 21.25 41.25  27.5 2.5 45  27.5 3.75 45  26.25 3.75 45  26.25 3.75 43.75  27.5 5 45  26.25 5 43.75  27.5 5 43.75  25 5 45  26.25 5 45  25 5 43.75  26.25 6.25 43.75  27.5 6.25 43.75  27.5 7.5 43.75  27.5 7.5 45  27.5 6.25 45  26.25 6.25 45  26.25 7.5 43.75  25 6.25 45  25 7.5 45  26.25 7.5 45  25 7.5 43.75  26.25 8.75 43.75  27.5 8.75 43.75  27.5 10 43.75  27.5 10 45  27.5 8.75 45  26.25 8.75 45  26.25 10 43.75  25 10 45  26.25 10 45  25 10 43.75  26.25 11.25 43.75  27.5 11.25 43.75  27.5 12.5 43.75  27.5 12.5 45  27.5 11.25 45  26.25 11.25 45  26.25 12.5 43.75  25 12.5 45  26.25 12.5 45  25 12.5 43.75  26.25 13.75 43.75  27.5 13.75 43.75  27.5 15 43.75  27.5 15 45  27.5 13.75 45  26.25 13.75 45  26.25 15 43.75  26.25 15 45  26.25 16.25 43.75  27.5 16.25 43.75  27.5 17.5 43.75  27.5 17.5 45  27.5 16.25 45  26.25 16.25 45  26.25 17.5 43.75  25 17.5 45  26.25 17.5 45  26.25 18.75 43.75  27.5 18.75 43.75  27.5 20 43.75  27.5 20 45  27.5 18.75 45  26.25 18.75 45  26.25 20 43.75  25 20 45  26.25 20 45  27.5 0 45  27.5 1.25 46.25  27.5 1.25 45  26.25 1.25 46.25  27.5 2.5 46.25  27.5 2.5 47.5  27.5 0 46.25  26.25 0 46.25  27.5 0 47.5  27.5 1.25 47.5  26.25 1.25 47.5  26.25 0 47.5  26.25 2.5 46.25  27.5 3.75 46.25  26.25 3.75 46.25  27.5 5 46.25  27.5 5 47.5  27.5 3.75 47.5  26.25 3.75 47.5  26.25 5 46.25  26.25 6.25 46.25  27.5 6.25 46.25  27.5 7.5 46.25  27.5 7.5 47.5  27.5 6.25 47.5  26.25 6.25 47.5  26.25 7.5 46.25  26.25 7.5 47.5  26.25 8.75 46.25  27.5 8.75 46.25  27.5 10 46.25  27.5 10 47.5  27.5 8.75 47.5  26.25 8.75 47.5  26.25 10 46.25  25 10 47.5  26.25 10 47.5  26.25 11.25 46.25  27.5 11.25 46.25  27.5 12.5 46.25  27.5 12.5 47.5  27.5 11.25 47.5  26.25 11.25 47.5  26.25 12.5 46.25  25 12.5 47.5  26.25 12.5 47.5  26.25 13.75 46.25  27.5 13.75 46.25  27.5 15 46.25  27.5 15 47.5  27.5 13.75 47.5  26.25 13.75 47.5  26.25 15 46.25  25 15 47.5  26.25 15 47.5  27.5 16.25 46.25  26.25 16.25 46.25  27.5 17.5 46.25  27.5 17.5 47.5  27.5 16.25 47.5  26.25 16.25 47.5  26.25 17.5 46.25  26.25 17.5 47.5  26.25 18.75 46.25  27.5 18.75 46.25  26.25 18.75 47.5  27.5 1.25 48.75  26.25 1.25 48.75  27.5 2.5 48.75  27.5 2.5 50  27.5 0 48.75  26.25 0 48.75  27.5 0 50  27.5 1.25 50  25 0 50  26.25 1.25 50  26.25 0 50  26.25 2.5 48.75  26.25 2.5 50  27.5 3.75 48.75  26.25 3.75 48.75  27.5 5 48.75  27.5 5 50  27.5 3.75 50  26.25 3.75 50  26.25 5 48.75  27.5 6.25 48.75  26.25 6.25 48.75  27.5 7.5 48.75  27.5 7.5 50  27.5 6.25 50  26.25 6.25 50  26.25 7.5 48.75  27.5 8.75 48.75  26.25 8.75 48.75  27.5 10 48.75  27.5 10 50  27.5 8.75 50  26.25 8.75 50  26.25 10 48.75  26.25 11.25 48.75  27.5 11.25 48.75  27.5 12.5 48.75  27.5 12.5 50  27.5 11.25 50  26.25 11.25 50  26.25 12.5 48.75  25 12.5 50  26.25 12.5 50  26.25 13.75 48.75  27.5 13.75 48.75  27.5 15 48.75  27.5 15 50  27.5 13.75 50  26.25 13.75 50  26.25 15 48.75  25 15 50  26.25 15 50  26.25 16.25 48.75  27.5 16.25 48.75  27.5 17.5 48.75  27.5 17.5 50  27.5 16.25 50  26.25 16.25 50  26.25 17.5 48.75  25 16.25 50  25 17.5 50  26.25 17.5 50  26.25 18.75 48.75  27.5 18.75 48.75  26.25 18.75 50  25 0 27.5  25 1.25 27.5  25 1.25 26.25  23.75 1.25 26.25  25 0 26.25  23.75 0 26.25  25 2.5 27.5  23.75 1.25 27.5  23.75 0 27.5  23.75 2.5 27.5  25 3.75 27.5  25 3.75 26.25  23.75 3.75 26.25  25 5 27.5  23.75 3.75 27.5  23.75 5 27.5  25 7.5 27.5  25 7.5 26.25  25 6.25 26.25  23.75 6.25 26.25  25 6.25 27.5  23.75 6.25 27.5  23.75 7.5 26.25  22.5 7.5 27.5  23.75 7.5 27.5  25 8.75 27.5  25 8.75 26.25  23.75 8.75 26.25  25 10 27.5  23.75 8.75 27.5  22.5 10 27.5  23.75 10 27.5  22.5 10 25  23.75 10 26.25  22.5 10 26.25  23.75 11.25 26.25  23.75 11.25 27.5  25 11.25 27.5  25 12.5 27.5  22.5 11.25 27.5  22.5 12.5 27.5  23.75 12.5 27.5  23.75 12.5 26.25  23.75 13.75 27.5  23.75 13.75 26.25  25 13.75 27.5  25 15 27.5  23.75 15 27.5  23.75 15 26.25  25 16.25 27.5  25 16.25 26.25  23.75 16.25 26.25  25 17.5 27.5  23.75 16.25 27.5  25 1.25 28.75  23.75 1.25 28.75  25 2.5 28.75  25 2.5 30  25 0 28.75  23.75 0 28.75  25 0 30  25 1.25 30  23.75 1.25 30  23.75 0 30  23.75 2.5 28.75  22.5 2.5 30  23.75 2.5 30  25 3.75 28.75  23.75 3.75 28.75  25 5 28.75  25 5 30  25 3.75 30  23.75 3.75 30  23.75 5 28.75  22.5 3.75 30  22.5 5 30  23.75 5 30  25 6.25 28.75  23.75 6.25 28.75  25 7.5 28.75  25 7.5 30  25 6.25 30  23.75 6.25 30  23.75 7.5 28.75  23.75 7.5 30  23.75 8.75 28.75  25 8.75 28.75  25 10 28.75  25 10 30  25 8.75 30  23.75 8.75 30  23.75 10 28.75  22.5 10 30  23.75 10 30  23.75 11.25 28.75  25 11.25 28.75  25 12.5 28.75  25 12.5 30  25 11.25 30  23.75 11.25 30  23.75 12.5 28.75  22.5 11.25 30  22.5 12.5 30  23.75 12.5 30  22.5 12.5 28.75  23.75 13.75 28.75  25 13.75 28.75  25 15 28.75  25 15 30  25 13.75 30  23.75 13.75 30  23.75 15 28.75  25 16.25 28.75  23.75 16.25 28.75  25 17.5 28.75  25 17.5 30  25 16.25 30  25 1.25 31.25  23.75 1.25 31.25  25 2.5 31.25  25 2.5 32.5  25 0 31.25  23.75 0 31.25  25 0 32.5  25 1.25 32.5  23.75 2.5 31.25  23.75 3.75 31.25  25 3.75 31.25  25 5 31.25  25 5 32.5  25 3.75 32.5  23.75 3.75 32.5  23.75 5 31.25  22.5 5 32.5  23.75 5 32.5  23.75 6.25 31.25  25 6.25 31.25  25 7.5 31.25  25 7.5 32.5  25 6.25 32.5  23.75 6.25 32.5  23.75 7.5 31.25  22.5 7.5 32.5  23.75 7.5 32.5  25 8.75 31.25  23.75 8.75 31.25  25 10 31.25  25 10 32.5  25 8.75 32.5  23.75 8.75 32.5  23.75 10 31.25  22.5 10 32.5  23.75 10 32.5  23.75 11.25 31.25  25 11.25 31.25  25 12.5 31.25  25 12.5 32.5  25 11.25 32.5  23.75 11.25 32.5  23.75 12.5 31.25  22.5 11.25 32.5  22.5 12.5 32.5  23.75 12.5 32.5  23.75 13.75 31.25  25 13.75 31.25  25 15 31.25  25 15 32.5  25 13.75 32.5  23.75 13.75 32.5  25 16.25 31.25  23.75 16.25 31.25  25 17.5 31.25  25 17.5 32.5  25 16.25 32.5  23.75 16.25 32.5  25 18.75 31.25  25 18.75 30  23.75 18.75 31.25  25 20 30  25 20 31.25  25 20 32.5  25 18.75 32.5  25 3.75 33.75  23.75 3.75 33.75  25 5 33.75  25 5 35  25 2.5 33.75  25 2.5 35  25 3.75 35  23.75 5 33.75  23.75 6.25 33.75  25 6.25 33.75  25 7.5 33.75  25 7.5 35  25 6.25 35  23.75 6.25 35  23.75 7.5 33.75  23.75 8.75 33.75  25 8.75 33.75  25 10 33.75  25 10 35  25 8.75 35  23.75 8.75 35  23.75 10 33.75  26.25 8.75 33.75  26.25 8.75 35  26.25 10 35  27.5 10 35  26.25 10 33.75  23.75 11.25 33.75  25 11.25 33.75  25 12.5 33.75  25 12.5 35  25 11.25 35  23.75 11.25 35  23.75 12.5 33.75  26.25 11.25 33.75  26.25 11.25 35  27.5 11.25 35  27.5 12.5 35  26.25 12.5 35  26.25 12.5 33.75  23.75 13.75 33.75  25 13.75 33.75  25 15 33.75  25 15 35  25 13.75 35  26.25 13.75 33.75  26.25 13.75 35  27.5 13.75 35  27.5 15 35  26.25 15 35  26.25 15 33.75  25 16.25 33.75  23.75 16.25 33.75  25 17.5 33.75  25 17.5 35  25 16.25 35  26.25 16.25 33.75  26.25 16.25 35  27.5 16.25 35  27.5 17.5 35  26.25 17.5 35  26.25 17.5 33.75  26.25 18.75 33.75  26.25 18.75 35  27.5 18.75 35  27.5 20 35  25 18.75 33.75  25 18.75 35  25 20 35  26.25 20 35  26.25 20 33.75  25 20 33.7
[...]
<PointData  Vectors="u"> 
<DataArray  type="Float64"  Name="u"  NumberOfComponents="3" format="ascii">1.9999999998249791e+02 1.5480650071585642e-10 -1.2920597870317842e-11  1.9999999998225118e+02 -8.5373888766621680e-11 -1.4324173385398917e-10  1.9999999998231499e+02 -6.4580495342044180e-12 7.0614247685186018e-11  1.9999999998313083e+02 -3.0177941289545668e-11 -1.3133640569504396e-10  1.9999999998243803e+02 8.9993365615251629e-11 -3.4409846856568804e-11  1.9999999998224635e+02 -1.3310187675998239e-11 4.8781344709354535e-12  1.9999999998245576e+02 1.3155031551178451e-10 2.3587752482556688e-11  1.9999999998227534e+02 4.9123941966767439e-11 -5.5330797451506300e-11  1.9999999998246165e+02 8.4271467139548611e-11 4.8457307393834147e-11  1.9999999998228103e+02 1.8403249085134046e-11 -8.5330746652828112e-11  1.9999999998142593e+02 -6.4972377689303478e-11 -8.6921028091064476e-11  1.9999999998126012e+02 -1.6962718842471696e-11 -2.6279222459174258e-11  1.9999999998222304e+02 -4.6587943114067262e-11 5.4377931983999483e-11  1.9999999998242274e+02 1.3899419829385817e-10 -6.7545804756519714e-11  1.9999999998138071e+02 -2.1261980276550413e-10 -7.3265921445935589e-11  1.9999999998148809e+02 -3.0100828392941059e-12 -1.7292881296314107e-11  1.9999999998082004e+02 1.6875849038832567e-10 -3.8889664681314479e-11  1.9999999998064993e+02 1.1386843113839933e-10 -7.9732990965552367e-11  1.9999999998080153e+02 1.1049453145931429e-10 8.8189069874709396e-11  1.9999999998136971e+02 -2.5026413736399024e-11 -2.1830029657019778e-10  1.9999999998232843e+02 -2.4690232938744951e-12 4.4152792157210580e-11  1.9999999998240492e+02 1.1798646173237415e-10 9.6647213085981105e-11  1.9999999998144290e+02 1.5512872970872525e-11 1.3962719021062680e-12  1.9999999998228705e+02 4.3024655773700590e-11 -2.0205398918636774e-11  1.9999999998209171e+02 -1.0741226122710006e-10 -9.0125718706652268e-11  1.9999999998226139e+02 -2.0085579982400285e-13 5.5827499018227605e-12  1.9999999998310554e+02 -6.6324783934408551e-11 -9.0428767901834009e-11  1.9999999998243953e+02 1.7263904561807377e-10 -4.9698638503562104e-11  1.9999999998230018e+02 5.5462424345407002e-11 -1.7582851892416228e-11  1.9999999998243644e+02 1.0946840553394222e-10 7.2154073732467873e-11  1.9999999998230749e+02 -1.3030245479026640e-11 1.4564287337150632e-11  1.9999999998144253e+02 -2.7769501685547237e-11 -9.2313207999167991e-11  1.9999999998135135e+02 -1.9708242496672209e-10 -2.1091989290961660e-10  1.9999999998059991e+02 -6.0900564160982653e-11 -1.6326137100388137e-10  1.9999999998062015e+02 1.1717243945269131e-11 5.3636105759672234e-11  1.9999999998081552e+02 1.3784425668173966e-10 -2.1153289667398200e-11  1.9999999998059471e+02 6.7245026044614179e-11 -3.6232359031678399e-11  1.9999999998081492e+02 1.4373291863277745e-10 7.4574763735297853e-11  1.9999999998062901e+02 2.7453687557004469e-11 2.9930065685266927e-11  1.9999999998137943e+02 -1.1077040124538507e-10 -1.7867140171254479e-10  1.9999999998145302e+02 -5.5783367946480192e-11 -1.1011452994667009e-10  1.9999999998149758e+02 2.6102417443472925e-11 1.9183660713763467e-11  1.9999999998146566e+02 4.2402222766586344e-11 -2.2772846210284156e-11  1.9999999998221298e+02 -8.4157566852703051e-11 -1.1414447346059895e-10  1.9999999998227003e+02 1.6396277208484142e-11 2.8537996634657096e-11  1.9999999998309977e+02 -6.8931649956487415e-11 -1.7899774175683155e-10  1.9999999998247739e+02 1.3229808172050740e-10 -6.3562436371401958e-11  1.9999999998235339e+02 1.2969717554972007e-11 -5.1110960459192958e-11  1.9999999998248566e+02 1.0645235029063839e-10 7.0731430991763236e-11  1.9999999998234969e+02 1.0760068834995350e-11 -2.9772764652825445e-11  1.9999999998147831e+02 -4.5697510460043075e-11 -1.5070675073234763e-10  1.9999999998130002e+02 -1.7312065134598849e-10 5.3348350515754885e-11  1.9999999998045959e+02 -5.3096864550580943e-11 -9.8797294727760456e-11  1.9999999998057783e+02 7.1671792696605877e-12 5.1773736114405952e-11  1.9999999998077774e+02 1.3797584845435450e-10 -1.8799517644234816e-11  1.9999999998059721e+02 1.1792935090781927e-11 -1.8706943952838836e-12  1.9999999998078763e+02 1.4982276850297808e-10 3.0144171111815047e-11  1.9999999998057069e+02 3.1958592985923739e-11 -2.4267972795120526e-11  1.9999999998144753e+02 -3.4264304514227112e-11 -2.2247312370855739e-10  1.9999999998144906e+02 -1.5311380724985935e-10 -1.1362394806975711e-10  1.9999999998145194e+02 -5.2993320553128092e-12 3.3068203364539619e-11  1.9999999998150548e+02 -4.7210791990584167e-12 -2.7055316866634642e-11  1.9999999998146518e+02 -6.1614297106825400e-11 -1.2310992965915558e-10  1.9999999998131361e+02 -2.0734490689711238e-10 -7.9702426032448898e-11  1.9999999998059380e+02 -8.4717765618958781e-11 -5.4677778908730380e-11  1.9999999998060619e+02 -3.1795966004518390e-11 6.2834224275400815e-11  1.9999999998082063e+02 9.6448976827912736e-11 -1.5985294865086318e-11  1.9999999998065420e+02 -8.6354146154566288e-12 4.8197068306790393e-11  1.9999999998082700e+02 -5.5966265439741142e-12 4.8684982914403597e-11  1.9999999998062657e+02 6.7270650842199438e-11 -5.0083902225985181e-12  1.9999999998150560e+02 -6.2375762765422899e-11 -1.9859976128249376e-10  1.9999999998247543e+02 1.2501163355088085e-10 -4.6937704175527391e-11  1.9999999998140103e+02 -1.8776189413642051e-10 -1.1092825579079661e-10  1.9999999998142590e+02 -9.3301893292350590e-11 4.3166742770219383e-11  1.9999999998247290e+02 1.0623708960811800e-10 7.2230862698270368e-11  1.9999999998149684e+02 -2.2090862694660170e-11 -1.1568559256256938e-11  1.9999999998146188e+02 -8.5850786926868951e-11 -1.0228553224107672e-10  1.9999999998131025e+02 -1.7315847334954571e-10 -1.1393209570568389e-10  1.9999999998059116e+02 -9.0735883949956158e-11 -1.4780870443878031e-10  1.9999999998065459e+02 -2.7031816797217278e-11 1.0441127877618377e-10  1.9999999998079099e+02 1.2463993076354935e-10 9.0119094181320205e-12  1.9999999998066221e+02 -9.5261309186519721e-12 -5.8094784498748310e-11  1.9999999998083749e+02 1.1339499622330310e-10 6.2672783906811764e-11  1.9999999998063873e+02 -5.0026279515303593e-11 -2.4405871822486040e-11  1.9999999998136875e+02 -1.0403409180353695e-10 -2.1237498273133972e-10  1.9999999998250672e+02 1.3476500126995264e-10 -5.1301911914965392e-11  1.9999999998141433e+02 -1.4257075162448314e-10 -1.5035616814042781e-10  1.9999999998151864e+02 -6.0141839269356238e-11 6.9333864569965895e-11  1.9999999998246054e+02 1.0525340942558925e-10 1.1256267998550567e-10  1.9999999998144983e+02 -4.4948982113943255e-11 -8.1380480675691883e-12  1.9999999998238226e+02 7.2913085326774348e-12 -2.2841322336358261e-12  1.9999999998147231e+02 -1.0408000004634794e-10 -1.3598300321904607e-10  1.9999999998133109e+02 -2.4231768730320384e-10 -8.4934115198862350e-11  1.9999999998064200e+02 -1.1608641487716655e-10 -1.2565593022449550e-10  1.9999999998066835e+02 -7.7273077389005368e-11 1.1417282107124145e-10  1.9999999998082595e+02 8.0682960265907020e-11 2.1746144198467169e-11  1.9999999998063092e+02 -1.7253168245305695e-11 -1.3078675879385725e-11  1.9999999998083294e+02 3.6783831497184658e-11 8.4068209146868962e-11  1.9999999998070479e+02 2.8153875050623556e-11 -3.5610284238419738e-11  1.9999999998142513e+02 -9.9163949282495810e-11 -1.8380738115267866e-10  1.9999999998230774e+02 -7.1115429390523871e-11 5.6721378856566998e-11  1.9999999998248938e+02 1.5837741731384585e-10 -5.0123215385132707e-11  1.9999999998142789e+02 -1.3932502399369628e-10 -7.4586141264111544e-11  1.9999999998142735e+02 -4.2808265514686458e-11 4.7966809709167042e-11  1.9999999998246378e+02 1.1851484872166674e-10 1.1108672084670555e-10  1.9999999998150903e+02 -1.3430358979518248e-11 -2.9489046344083222e-11  1.9999999998145699e+02 -6.9371613872269177e-11 -1.3750421140482434e-10  1.9999999998129292e+02 -1.8236845777553434e-10 -7.7030359128179984e-11  1.9999999998055014e+02 -8.0654433862376702e-11 -1.8215750338995769e-10  1.9999999998061935e+02 1.2597348496332045e-11 1.5210051080027979e-10  1.9999999998077251e+02 8.0684396809365511e-11 1.7917149508745703e-11  1.9999999998062705e+02 -1.2046471815050655e-11 -3.4353123575781828e-11  1.9999999998079790e+02 9.5330195793178744e-11 8.1391743226163620e-11  1.9999999998063319e+02 4.8193812580604226e-12 4.3771833543221114e-11  1.9999999998139290e+02 -1.0723032477092219e-10 -2.2974099247802509e-10  1.9999999998229762e+02 -5.0124184406965658e-11 2.5144388587788271e-11  1.9999999998246918e+02 1.2409958484859162e-10 -6.3866096844224091e-11  1.9999999998146896e+02 -4.1877024821224650e-11 3.7143761968322441e-11  1.9999999998232107e+02 -3.1377980663691702e-11 8.0537676501892266e-12  1.9999999998247222e+02 1.0354918935083591e-10 1.1200817892910187e-10  1.9999999998149249e+02 7.7820201791591246e-11 -5.7580279019275952e-12  1.9999999998243626e+02 1.2034991166041791e-10 7.6490110623017714e-11  1.9999999998152708e+02 -5.3931698558755427e-12 -4.7313488893299220e-11  1.9999999998148905e+02 6.2640705520090314e-12 -2.5612595163184069e-10  1.9999999998147925e+02 1.2797976078582034e-13 -5.3488635629301253e-11  1.9999999998078121e+02 9.6013454326520193e-11 9.0479825652363321e-11  1.9999999998141669e+02 -1.9295519161880469e-10 -5.0885400405148061e-11  1.9999999998233804e+02 8.0387170066839645e-11 -4.1908087760657062e-11  1.9999999998145802e+02 -6.6788569865383772e-11 -1.2397817581030782e-10  1.9999999998144253e+02 -3.2949958134213164e-11 -1.8509677129543119e-10  1.9999999998060596e+02 6.5361172318573464e-11 6.3722361117612843e-11  1.9999999998078161e+02 1.3720780927683595e-10 1.0143350344293241e-10  1.9999999998141246e+02 -1.5341375266595658e-10 -7.7014865331653089e-11  1.9999999998058340e+02 1.0099591226209755e-10 1.2526997033671255e-10  1.9999999998234640e+02 1.2528606229046697e-11 -3.5939638808792793e-11  1.9999999998244533e+02 1.3598487323629189e-10 7.3012614371765468e-11  1.9999999998153322e+02 1.7604821720483190e-11 -1.4529837686450008e-11  1.9999999998232499e+02 2.8591213956222007e-11 -3.4628910788463673e-11  1.9999999998142044e+02 -6.5660214879239086e-11 -9.6151041883921776e-11  1.9999999998060187e+02 -9.2443406065363005e-11 -1.1177022493715597e-10  1.9999999998062060e+02 2.6487715782129687e-11 6.9861823623526085e-12  1.9999999998080474e+02 8.5062593724615482e-11 1.0333874055371924e-10  1.9999999998063646e+02 -2.7051625089700109e-11 7.1410254677021256e-11  1.9999999998145250e+02 -1.0416131351433675e-10 -2.0096869783509016e-10  1.9999999998144688e+02 -1.8601161709723101e-10 -1.0965626483675675e-10  1.9999999998214992e+02 -1.0016515252337754e-10 -1.6028929062843410e-10  1.9999999998234964e+02 5.2360006650099591e-12 2.0892694945794871e-11  1.9999999998242379e+02 1.1293089299644321e-10 8.7329412747467705e-11  1.9999999998155863e+02 2.7002228099897660e-11 8.6613275882539800e-12  1.9999999998231110e+02 2.9021558285672306e-11 -1.0157461297439560e-11  1.9999999998142769e+02 -6.3741225076968581e-11 -1.1935253081850409e-10  1.9999999998059710e+02 -9.0836201647323815e-11 -1.7777849671815445e-10  1.9999999998059863e+02 5.5588979977548694e-11 -4.0817852215135507e-11  1.9999999998080938e+02 1.4747459433477562e-10 7.2504408736982040e-11  1.9999999998061620e+02 -5.4630910058129114e-11 2.0231021980313143e-11  1.9999999998139958e+02 -9.7993871769262002e-11 -1.9464783565307028e-10  1.9999999998142238e+02 -1.1779448909799807e-10 -1.6475115879299286e-10  1.9999999998232727e+02 2.4423318079578844e-11 -1.7212460469136915e-11  1.9999999998244610e+02 1.0158236991395829e-10 7.9802724304464330e-11  1.9999999998143986e+02 3.1738754577402857e-11 -2.0659948409716440e-11  1.9999999998147862e+02 -7.4942168764078919e-11 -1.2912766906302647e-10  1.9999999998055128e+02 -3.9658026028523701e-11 -1.8685109567559617e-10  1.9999999998063848e+02 -4.8623557209457480e-11 -7.2626080498943246e-11  1.9999999998080580e+02 5.9023945209170896e-11 7.1728055697851870e-11  1.9999999998061497e+02 3.6255433811486657e-11 -5.1508634566903081e-11  1.9999999998142101e+02 -7.1176318031520093e-11 -1.7444419458401689e-10  1.9999999998141627e+02 -1.5779000879948010e-10 -1.6314492658370256e-10  1.9999999998236078e+02 2.3368891409593585e-11 -5.3005922521416439e-12  1.9999999998245397e+02 9.8401505403052194e-11 9.8133135485864936e-11  1.9999999998149923e+02 -1.1728188973165037e-11 -4.8109837325610567e-12  1.9999999998236456e+02 3.0185291456019416e-12 -3.5791248300676046e-11  1.9999999998142846e+02 -6.0952575242078219e-11 -8.7321222928979155e-11  1.9999999998056308e+02 -4.0975038614762184e-11 -9.8342410203676193e-11  1.9999999998067787e+02 6.7961321255370608e-12 7.4616950926685626e-11  1.9999999998082808e+02 9.1289182564176451e-11 6.3487944822396957e-11  1.9999999998063714e+02 1.2896136524562693e-10 3.6684767034576462e-11  1.9999999998140444e+02 -5.4660620273558359e-11 -2.1969481102818650e-10  1.9999999998140052e+02 -2.0686206556544766e-10 -1.2150314785432556e-10  1.9999999998246153e+02 1.1637186605716565e-10 9.9867094538006674e-11  1.9999999998150324e+02 -2.4917756303586387e-11 1.6881484376257435e-13  1.9999999998142778e+02 -9.7068993967261686e-11 -7.5992430617209326e-11  1.9999999998066741e+02 -1.0410549019902752e-10 -7.2349156603538664e-11  1.9999999998066733e+02 -4.9773719261594325e-11 -5.8233727659814640e-11  1.9999999998083976e+02 4.0089187211672232e-11 9.5350864875505364e-11  1.9999999998072317e+02 -6.7239628335605279e-11 -2.9831465791403831e-11  1.9999999998141760e+02 -9.9497254649870826e-11 -2.2147575765691770e-10  1.9999999998137002e+02 -1.5129245035191728e-10 -1.1239100731114381e-10  1.9999999998246543e+02 1.0209059516947077e-10 8.4706042041829529e-11  1.9999999998141308e+02 2.4438242261724258e-11 2.8622545087957894e-11  1.9999999998141041e+02 -7.6698517362214165e-11 -6.7254652752896314e-11  1.9999999998055861e+02 -9.9259155770421558e-11 -1.6836628256932287e-10  1.9999999998083098e+02 4.6501350146758570e-11 5.2205517534446179e-11  1.9999999998059724e+02 4.6989716915114030e-12 4.3661733436441914e-11  1.9999999998139353e+02 -7.8384913833860630e-11 -1.9553615841946786e-10  1.9999999998146805e+02 -3.9138760092162372e-11 -1.1000422947295764e-10  1.9999999998078533e+02 1.2440833655136454e-10 4.4617858252993961e-11  1.9999999998143156e+02 -1.8334414918582829e-10 -1.0549914838696618e-10  1.9999999998063498e+02 8.9249377772117368e-11 -2.5333261738755328e-11  1.9999999998245124e+02 1.2500202027302540e-10 9.3173728234979129e-11  1.9999999998151046e+02 3.4467996766212941e-11 -2.8862157337297457e-11  1.9999999998237217e+02 -4.1215823203382266e-12 -5.2504292485748504e-11  1.9999999998146137e+02 -3.6584846611038542e-11 -1.0361663854531065e-10  1.9999999998056950e+02 -8.0804813232337212e-11 -1.3483824491115055e-10  1.9999999998064862e+02 6.5835540786223876e-11 -1.1283447021592656e-10  1.9999999998081952e+02 1.1703963568743997e-10 6.2782252082599642e-11  1.9999999998063313e+02 6.1980746399429276e-12 -3.0385500143729228e-11  1.9999999998139972e+02 -9.9109691699833421e-11 -1.9286495684857945e-10  1.9999999998141973e+02 -1.4484001645980612e-10 -1.3990251823639826e-10  1.9999999998233878e+02 4.8692761947758323e-11 1.3877747598239984e-11  1.9999999998241393e+02 1.3925394647474767e-10 7.4147938319867818e-11  1.9999999998149391e+02 4.5028838302299507e-11 -4.8657346266249887e-11  1.9999999998235882e+02 5.9529540529469204e-11 -6.8717335148090899e-12  1.9999999998144116e+02 -7.7915928701251750e-11 -1.0740943384200157e-10  1.9999999998058342e+02 -9.0977633873501088e-11 -2.1284583006336183e-10  1.9999999998060198e+02 1.9640567694331785e-11 -6.8121154462198037e-11  1.9999999998080366e+02 1.2778907388178933e-10 7.9011397202799786e-11  1.9999999998062418e+02 6.3401696759421187e-11 3.3612864124298931e-11  1.9999999998139296e+02 -8.2273204782683587e-11 -1.8372722690837453e-10  1.9999999998142891e+02 -1.5073953859202652e-10 -1.4256957969532402e-10  1.9999999998243683e+02 9.0446858885492042e-11 5.6820991361742445e-11  1.9999999998152455e+02 -3.9524393518245383e-13 -2.3600115695702218e-11  1.9999999998237661e+02 1.3221054921243826e-11 -2.2596119736316199e-11  1.9999999998146305e+02 -9.9919989754749398e-11 -9.9216357072653927e-11  1.9999999998055114e+02 -1.2608932107188775e-10 -8.7886600202099735e-11  1.9999999998062918e+02 -7.7245473830344513e-12 -2.4974808767694926e-11  1.9999999998080895e+02 9.5038394745372701e-11 9.1140432865750712e-11  1.9999999998063174e+02 -6.4284571695006940e-11 -9.1748363233133594e-12  1.9999999998146319e+02 -5.7631667086100440e-11 -1.6962807098762912e-10  1.9999999998141519e+02 -1.2506888871604563e-10 -1.2938680304508786e-10  1.9999999998245673e+02 1.1216411696534007e-10 9.1661860876595294e-11  1.9999999998151699e+02 -1.1388791262876956e-11 -7.8293376479912558e-12  1.9999999998235296e+02 4.6370829762382997e-11 -7.9376936362537666e-11  1.9999999998141089e+02 -4.9082885670845317e-11 -1.4343205471734922e-10  1.9999999998055986e+02 -8.3607388178113519e-11 -1.3524469607542826e-10  1.9999999998062466e+02 6.9709868658868628e-11 -6.3110756711556492e-11  1.9999999998082779e+02 1.5003270254027102e-10 1.3006386621680914e-10  1.9999999998060559e+02 -6.8968417772782882e-12 2.3528135487052512e-11  1.9999999998144298e+02 -9.4029169169915476e-11 -1.5726975389178067e-10  1.9999999998135783e+02 -1.8519321102651402e-10 -1.4663813108938163e-10  1.9999999998153206e+02 1.2220791229265392e-11 -3.9199108687664349e-11  1.9999999998145100e+02 -5.8667550176555741e-11 -9.7763160940978986e-11  1.9999999998057004e+02 -4.1108196475174646e-11 -1.0039737890673866e-10  1.9999999998066210e+02 9.3003429704526485e-12 -1.2813359735539188e-11  1.9999999998085704e+02 1.1850157911876423e-10 9.5680915803730731e-11  1.9999999998069396e+02 4.7944420351917447e-12 -3.8593129488415251e-11  1.9999999998141089e+02 -6.9900495996407607e-11 -2.4368416262340699e-10  1.9999999998144750e+02 -1.7378422267612863e-10 -1.2306342278136782e-10  1.9999999998245406e+02 1.0468298298158465e-10 9.0739727885988713e-11  1.9999999998149579e+02 4.0151458081382882e-11 -6.3598867326485324e-12  1.9999999998143790e+02 -8.6244344723756079e-11 -7.8110797979155705e-11  1.9999999998064990e+02 -1.4488468365491347e-10 -6.7398670036999003e-11  1.9999999998060537e+02 -5.6197615126015302e-11 -6.8997038940772405e-11  1.9999999998081068e+02 9.0171657952185071e-12 1.1342948979749805e-10  1.9999999998066903e+02 -4.8965097840408807e-11 -4.7908568134943091e-11  1.9999999998144466e+02 -1.0282007028866488e-10 -1.2558574774312625e-10  1.9999999998140049e+02 -1.1653307252898097e-10 -1.2162459718261304e-10  1.9999999998245053e+02 1.1902498257997736e-10 1.0963266110220965e-10  1.9999999998144224e+02 -2.5238263853848687e-11 -2.8593515757172407e-12  1.9999999998081776e+02 6.1866312560536456e-10 3.2446574592637196e-11  1.9999999998046050e+02 -1.4466092682178303e-10 -9.3352494636240894e-11  1.9999999998058368e+02 -8.4338477679256598e-11 2.9699021243875161e-11  1.9999999998141840e+02 -8.6812259873560229e-11 -7.2322534854911201e-11  1.9999999998070049e+02 -4.6924750046448162e-11 -2.9580914725338737e-11  1.9999999998082032e+02 2.2868533728889959e-11 9.9605761560331224e-11  1.9999999998063734e+02 4.3954008832077859e-11 -1.7265429007851295e-11  1.9999999998144818e+02 -3.4136607439575751e-10 1.8972264648387202e-11  1.9999999998080722e+02 5.0951784569975512e-10 7.1892286152970974e-11  1.9999999998063447e+02 -8.5013415665331855e-11 5.2067056012907812e-11  1.9999999998142547e+02 -2.5041996968867740e-11 -1.1736097267766794e-10  1.9999999998149002e+02 -2.2003625277816054e-11 -7.6181471956207274e-11  1.9999999998129107e+02 9.3966247513966326e-12 -1.9617325343190046e-10  1.9999999998052715e+02 -6.0296181524883361e-11 -1.1564430986606051e-10  1.9999999998144841e+02 -6.3043393574845209e-11 -7.5181164386058187e-11  1.9999999998057774e+02 4.1079447708927149e-11 -3.2781193673000324e-11  1.9999999998078238e+02 9.2512918908357484e-11 5.3521181594753016e-11  1.9999999998058365e+02 1.2056368085544481e-11 1.5173044299954625e-11  1.9999999998142275e+02 -5.1045271709186178e-11 -1.5574309945928421e-10  1.9999999998140933e+02 -1.5960449382046729e-10 -1.0918449236559540e-10  1.9999999998142360e+02 -8.4439417533733289e-11 -1.0969729879046470e-10  1.9999999998056819e+02 -9.098981479