<?xml version="1.0"?>
<VTKFile type="UnstructuredGrid"  version="0.1"  >
<UnstructuredGrid>
<Piece  NumberOfPoints="4075" NumberOfCells="20137">
<Points>
<DataArray  type="Float64"  NumberOfComponents="3"  format="ascii">27.5 37.5 37.5  27.5 37.5 38.75  27.5 36.25 38.75  26.25 36.25 38.75  27.5 37.5 40  27.5 35 40  27.5 36.25 40  26.25 37.5 38.75  27.5 38.75 38.75  27.5 38.75 37.5  26.25 38.75 38.75  27.5 40 37.5  27.5 40 38.75  27.5 40 40  27.5 38.75 40  27.5 38.75 41.25  26.25 38.75 41.25  27.5 40 41.25  27.5 40 42.5  27.5 37.5 41.25  27.5 37.5 42.5  27.5 38.75 42.5  26.25 40 41.25  27.5 41.25 41.25  27.5 41.25 40  26.25 41.25 41.25  27.5 42.5 40  27.5 42.5 41.25  27.5 42.5 42.5  27.5 41.25 42.5  45 37.5 35  45 37.5 36.25  45 36.25 36.25  43.75 36.25 36.25  45 37.5 37.5  45 35 37.5  45 36.25 37.5  42.5 35 37.5  43.75 36.25 37.5  43.75 35 37.5  42.5 37.5 35  43.75 37.5 36.25  43.75 37.5 35  47.5 37.5 35  47.5 37.5 36.25  47.5 36.25 36.25  46.25 36.25 36.25  47.5 37.5 37.5  47.5 35 37.5  47.5 36.25 37.5  46.25 36.25 37.5  46.25 35 37.5  46.25 37.5 36.25  46.25 37.5 37.5  50 37.5 35  50 37.5 36.25  50 36.25 36.25  48.75 36.25 36.25  50 37.5 37.5  50 35 37.5  50 36.25 37.5  48.75 36.25 37.5  48.75 35 37.5  48.75 37.5 36.25  48.75 37.5 35  48.75 37.5 37.5  42.5 35 38.75  42.5 33.75 38.75  41.25 33.75 38.75  42.5 35 40  42.5 32.5 37.5  42.5 32.5 38.75  42.5 32.5 40  42.5 33.75 40  43.75 35 38.75  43.75 33.75 38.75  45 35 38.75  45 35 40  43.75 33.75 40  43.75 35 40  47.5 35 38.75  46.25 35 38.75  46.25 33.75 38.75  47.5 35 40  48.75 35 38.75  48.75 33.75 38.75  46.25 36.25 38.75  47.5 36.25 38.75  47.5 37.5 38.75  47.5 37.5 40  47.5 36.25 40  48.75 36.25 38.75  50 36.25 38.75  50 37.5 38.75  50 37.5 40  50 35 38.75  50 35 40  50 36.25 40  48.75 36.25 40  48.75 35 40  48.75 37.5 38.75  48.75 37.5 40  45 35 41.25  45 33.75 41.25  43.75 33.75 41.25  45 35 42.5  47.5 35 41.25  47.5 33.75 41.25  46.25 33.75 41.25  47.5 35 42.5  46.25 35 41.25  46.25 35 40  46.25 35 42.5  48.75 35 41.25  48.75 33.75 41.25  50 35 41.25  50 35 42.5  48.75 35 42.5  48.75 33.75 42.5  30 37.5 32.5  30 38.75 33.75  30 37.5 33.75  28.75 38.75 33.75  30 37.5 35  30 38.75 35  30 40 35  27.5 37.5 35  28.75 38.75 35  28.75 37.5 35  27.5 38.75 35  27.5 38.75 33.75  27.5 40 35  28.75 40 35  32.5 37.5 32.5  32.5 38.75 33.75  32.5 38.75 32.5  31.25 38.75 33.75  32.5 40 32.5  32.5 40 33.75  32.5 40 35  32.5 37.5 33.75  32.5 37.5 35  32.5 38.75 35  31.25 38.75 35  31.25 37.5 35  31.25 40 35  35 40 32.5  35 40 33.75  35 38.75 33.75  33.75 38.75 33.75  35 40 35  35 37.5 35  35 38.75 35  33.75 38.75 35  33.75 37.5 35  33.75 40 33.75  33.75 40 32.5  33.75 40 35  37.5 40 32.5  37.5 40 33.75  37.5 38.75 33.75  36.25 38.75 33.75  37.5 38.75 32.5  36.25 38.75 32.5  37.5 40 35  37.5 37.5 35  37.5 38.75 35  36.25 38.75 35  36.25 37.5 35  36.25 40 33.75  36.25 40 32.5  36.25 40 35  40 40 32.5  40 40 33.75  40 38.75 33.75  38.75 38.75 33.75  40 38.75 32.5  38.75 38.75 32.5  40 40 35  40 37.5 35  40 38.75 35  38.75 38.75 35  38.75 40 33.75  38.75 40 32.5  38.75 40 35  42.5 37.5 32.5  42.5 38.75 33.75  42.5 37.5 33.75  41.25 38.75 33.75  42.5 38.75 35  42.5 40 35  41.25 38.75 35  41.25 37.5 35  41.25 40 35  41.25 40 33.75  43.75 38.75 35  43.75 38.75 33.75  45 38.75 35  45 40 35  43.75 40 35  33.75 41.25 33.75  35 41.25 33.75  35 41.25 35  35 42.5 35  33.75 41.25 35  36.25 41.25 33.75  37.5 41.25 33.75  37.5 41.25 35  37.5 42.5 35  36.25 41.25 35  36.25 42.5 35  38.75 41.25 33.75  40 41.25 33.75  40 41.25 35  40 42.5 35  38.75 41.25 35  38.75 42.5 35  41.25 41.25 33.75  41.25 41.25 35  42.5 41.25 35  42.5 42.5 35  41.25 42.5 35  30 37.5 36.25  30 36.25 36.25  28.75 36.25 36.25  30 37.5 37.5  30 35 37.5  30 36.25 37.5  28.75 36.25 37.5  28.75 37.5 36.25  28.75 37.5 37.5  27.5 37.5 36.25  32.5 37.5 36.25  32.5 36.25 36.25  31.25 36.25 36.25  32.5 37.5 37.5  32.5 35 37.5  32.5 36.25 37.5  31.25 36.25 37.5  31.25 35 37.5  31.25 37.5 36.25  31.25 37.5 37.5  35 37.5 36.25  35 36.25 36.25  33.75 36.25 36.25  35 37.5 37.5  35 35 37.5  35 36.25 37.5  33.75 36.25 37.5  33.75 35 37.5  33.75 37.5 36.25  33.75 37.5 37.5  37.5 37.5 36.25  37.5 36.25 36.25  36.25 36.25 36.25  37.5 37.5 37.5  37.5 35 37.5  37.5 36.25 37.5  36.25 36.25 37.5  36.25 35 37.5  36.25 37.5 36.25  36.25 37.5 37.5  40 37.5 36.25  40 36.25 36.25  38.75 36.25 36.25  40 37.5 37.5  40 35 37.5  40 36.25 37.5  38.75 36.25 37.5  38.75 35 37.5  38.75 37.5 36.25  38.75 37.5 37.5  42.5 37.5 36.25  42.5 36.25 36.25  41.25 36.25 36.25  42.5 37.5 37.5  42.5 36.25 37.5  41.25 36.25 37.5  41.25 37.5 36.25  41.25 37.5 37.5  43.75 37.5 37.5  28.75 38.75 36.25  30 38.75 36.25  30 40 36.25  30 40 37.5  30 38.75 37.5  28.75 38.75 37.5  28.75 40 36.25  27.5 38.75 36.25  28.75 40 37.5  27.5 40 36.25  31.25 38.75 36.25  32.5 38.75 36.25  32.5 40 36.25  32.5 40 37.5  32.5 38.75 37.5  31.25 38.75 37.5  31.25 40 36.25  31.25 40 37.5  33.75 38.75 36.25  35 38.75 36.25  35 40 36.25  35 40 37.5  35 38.75 37.5  33.75 38.75 37.5  33.75 40 36.25  33.75 40 37.5  36.25 38.75 36.25  37.5 38.75 36.25  37.5 40 36.25  37.5 40 37.5  37.5 38.75 37.5  36.25 38.75 37.5  36.25 40 36.25  36.25 40 37.5  40 38.75 36.25  38.75 38.75 36.25  40 40 36.25  40 40 37.5  40 38.75 37.5  38.75 38.75 37.5  38.75 40 36.25  38.75 40 37.5  41.25 38.75 36.25  42.5 38.75 36.25  42.5 40 36.25  42.5 40 37.5  42.5 38.75 37.5  41.25 38.75 37.5  41.25 40 36.25  41.25 40 37.5  43.75 38.75 36.25  45 38.75 36.25  45 40 36.25  45 40 37.5  45 38.75 37.5  43.75 38.75 37.5  43.75 40 36.25  43.75 40 37.5  47.5 38.75 36.25  47.5 38.75 35  46.25 38.75 36.25  46.25 38.75 35  47.5 40 35  47.5 40 36.25  47.5 40 37.5  47.5 38.75 37.5  46.25 38.75 37.5  46.25 40 36.25  46.25 40 35  46.25 40 37.5  48.75 38.75 36.25  48.75 38.75 35  50 38.75 36.25  50 38.75 35  50 40 35  50 40 36.25  50 40 37.5  50 38.75 37.5  48.75 38.75 37.5  48.75 40 36.25  48.75 40 35  48.75 40 37.5  28.75 41.25 36.25  28.75 41.25 35  30 41.25 36.25  30 41.25 35  30 42.5 35  30 42.5 36.25  30 42.5 37.5  30 41.25 37.5  28.75 41.25 37.5  27.5 42.5 35  28.75 42.5 36.25  28.75 42.5 35  27.5 41.25 37.5  27.5 42.5 37.5  28.75 42.5 37.5  31.25 41.25 36.25  31.25 41.25 35  32.5 41.25 36.25  32.5 41.25 35  32.5 42.5 35  32.5 42.5 36.25  32.5 42.5 37.5  32.5 41.25 37.5  31.25 41.25 37.5  31.25 42.5 36.25  31.25 42.5 35  31.25 42.5 37.5  33.75 41.25 36.25  35 41.25 36.25  35 42.5 36.25  35 42.5 37.5  35 41.25 37.5  33.75 41.25 37.5  33.75 42.5 36.25  33.75 42.5 35  33.75 42.5 37.5  36.25 41.25 36.25  37.5 41.25 36.25  37.5 42.5 36.25  37.5 42.5 37.5  37.5 41.25 37.5  36.25 41.25 37.5  36.25 42.5 36.25  36.25 42.5 37.5  38.75 41.25 36.25  40 41.25 36.25  40 42.5 36.25  40 42.5 37.5  40 41.25 37.5  38.75 41.25 37.5  38.75 42.5 36.25  38.75 42.5 37.5  41.25 41.25 36.25  42.5 41.25 36.25  42.5 42.5 36.25  42.5 42.5 37.5  42.5 41.25 37.5  41.25 41.25 37.5  41.25 42.5 36.25  41.25 42.5 37.5  43.75 41.25 36.25  43.75 41.25 35  45 41.25 36.25  45 41.25 35  45 42.5 35  45 42.5 36.25  45 42.5 37.5  45 41.25 37.5  43.75 41.25 37.5  43.75 42.5 36.25  43.75 42.5 35  43.75 42.5 37.5  46.25 41.25 36.25  46.25 41.25 35  47.5 41.25 36.25  47.5 41.25 35  47.5 42.5 35  47.5 42.5 36.25  47.5 42.5 37.5  47.5 41.25 37.5  46.25 41.25 37.5  46.25 42.5 36.25  46.25 42.5 35  46.25 42.5 37.5  48.75 41.25 36.25  48.75 41.25 35  50 41.25 36.25  50 41.25 35  50 42.5 35  50 42.5 36.25  50 42.5 37.5  50 41.25 37.5  48.75 41.25 37.5  48.75 42.5 36.25  48.75 42.5 35  48.75 42.5 37.5  28.75 43.75 36.25  28.75 43.75 35  30 43.75 36.25  30 43.75 35  30 45 35  30 45 36.25  30 45 37.5  30 43.75 37.5  28.75 43.75 37.5  27.5 43.75 35  27.5 45 35  28.75 45 36.25  28.75 45 35  31.25 43.75 36.25  31.25 43.75 35  32.5 43.75 36.25  32.5 43.75 35  32.5 45 35  32.5 45 36.25  32.5 45 37.5  32.5 43.75 37.5  31.25 43.75 37.5  31.25 45 36.25  31.25 45 35  31.25 45 37.5  33.75 43.75 36.25  33.75 43.75 35  35 43.75 36.25  35 43.75 35  35 45 35  35 45 36.25  35 45 37.5  35 43.75 37.5  33.75 43.75 37.5  33.75 45 36.25  33.75 45 35  33.75 45 37.5  36.25 43.75 36.25  36.25 43.75 35  37.5 43.75 36.25  37.5 43.75 35  37.5 45 35  37.5 45 36.25  37.5 45 37.5  37.5 43.75 37.5  36.25 43.75 37.5  36.25 45 36.25  36.25 45 35  36.25 45 37.5  38.75 43.75 36.25  38.75 43.75 35  40 43.75 36.25  40 43.75 35  40 45 35  40 45 36.25  40 45 37.5  40 43.75 37.5  38.75 43.75 37.5  38.75 45 36.25  38.75 45 35  38.75 45 37.5  41.25 43.75 36.25  41.25 43.75 35  42.5 43.75 36.25  42.5 43.75 35  42.5 45 35  42.5 45 36.25  42.5 45 37.5  42.5 43.75 37.5  41.25 43.75 37.5  41.25 45 36.25  41.25 45 35  41.25 45 37.5  43.75 43.75 36.25  43.75 43.75 35  45 43.75 36.25  45 43.75 35  45 45 35  45 45 36.25  45 45 37.5  45 43.75 37.5  43.75 43.75 37.5  43.75 45 36.25  43.75 45 35  43.75 45 37.5  46.25 43.75 36.25  46.25 43.75 35  47.5 43.75 36.25  47.5 43.75 35  47.5 45 35  47.5 45 36.25  47.5 45 37.5  47.5 43.75 37.5  46.25 43.75 37.5  46.25 45 36.25  46.25 45 35  46.25 45 37.5  48.75 43.75 36.25  48.75 43.75 35  50 43.75 36.25  50 43.75 35  50 45 35  50 45 36.25  50 45 37.5  50 43.75 37.5  48.75 43.75 37.5  48.75 45 36.25  48.75 45 35  48.75 45 37.5  28.75 46.25 36.25  28.75 46.25 35  30 46.25 36.25  30 46.25 35  30 47.5 35  30 47.5 36.25  30 47.5 37.5  30 46.25 37.5  28.75 46.25 37.5  28.75 47.5 36.25  27.5 47.5 37.5  28.75 47.5 37.5  31.25 46.25 36.25  31.25 46.25 35  32.5 46.25 36.25  32.5 46.25 35  32.5 47.5 35  32.5 47.5 36.25  32.5 47.5 37.5  32.5 46.25 37.5  31.25 46.25 37.5  31.25 47.5 36.25  31.25 47.5 35  31.25 47.5 37.5  33.75 46.25 36.25  33.75 46.25 35  35 46.25 36.25  35 46.25 35  35 47.5 35  35 47.5 36.25  35 47.5 37.5  35 46.25 37.5  33.75 46.25 37.5  33.75 47.5 36.25  33.75 47.5 35  33.75 47.5 37.5  36.25 46.25 36.25  36.25 46.25 35  37.5 46.25 36.25  37.5 46.25 35  37.5 47.5 35  37.5 47.5 36.25  37.5 47.5 37.5  37.5 46.25 37.5  36.25 46.25 37.5  36.25 47.5 36.25  36.25 47.5 35  36.25 47.5 37.5  38.75 46.25 36.25  38.75 46.25 35  40 46.25 36.25  40 46.25 35  40 47.5 35  40 47.5 36.25  40 47.5 37.5  40
[...]
<PointData  Vectors="u"> 
<DataArray  type="Float64"  Name="u"  NumberOfComponents="3" format="ascii">1.9999999998080887e+02 6.7806095276711791e-11 9.1677914441607222e-11  1.9999999998061588e+02 -2.3271575464457302e-11 -7.4739963134500282e-11  1.9999999998052724e+02 -1.2131441670041848e-10 -8.5332350391430710e-11  1.9999999998146095e+02 -1.0297136340206930e-10 -9.0455762502861202e-11  1.9999999998080330e+02 4.3431300207473170e-11 1.1109474535075683e-10  1.9999999998081631e+02 8.2695151309551789e-11 7.5383604369824815e-11  1.9999999998060693e+02 1.9971014806162878e-11 9.1153901973496662e-12  1.9999999998142866e+02 -2.1943340448896382e-10 -1.5827335926187498e-10  1.9999999998057953e+02 -1.1201337743577784e-10 -1.1975668364706365e-10  1.9999999998059391e+02 -2.8151603391903565e-11 -3.3102213173647259e-11  1.9999999998141777e+02 -7.6772540538389917e-11 -1.2063659249548843e-10  1.9999999998079872e+02 1.1455539812933792e-10 6.0171247127889813e-11  1.9999999998063240e+02 2.2856143599078394e-11 -6.2198063697484420e-11  1.9999999998079775e+02 9.1538820554518081e-11 9.3758011604434151e-11  1.9999999998062191e+02 -3.0397280069565689e-11 1.1353398652027283e-11  1.9999999998057368e+02 -1.1298574693777641e-10 -1.4051564478168130e-10  1.9999999998143736e+02 -8.3538376749039570e-11 -1.1886425169942114e-10  1.9999999998061313e+02 -8.1146033153086846e-12 -9.4752394213495647e-12  1.9999999998080264e+02 7.9112411473419131e-11 8.7266019621854398e-11  1.9999999998057604e+02 -1.3258491637141354e-11 -8.2694635242312771e-11  1.9999999998077092e+02 7.0604377885074913e-11 1.0270444098224346e-10  1.9999999998059707e+02 9.9386203089228070e-12 1.9952127124704367e-12  1.9999999998140163e+02 -1.9892009553823881e-10 -1.4011403715684176e-10  1.9999999998059300e+02 -1.3088806921963461e-10 -1.4747139786126845e-10  1.9999999998062168e+02 -2.6164755523301799e-11 -1.2212241747467156e-12  1.9999999998143107e+02 -1.3493993333168346e-10 -1.3649269907676451e-10  1.9999999998081913e+02 7.1333248070960582e-11 8.4363344955921063e-11  1.9999999998063134e+02 2.5946200435028797e-12 -9.1601047540203381e-12  1.9999999998081111e+02 7.5953213174133171e-11 7.8463907450651610e-11  1.9999999998062646e+02 -3.0147803595358049e-11 3.7081645796738979e-11  1.9999999996961131e+02 1.3227833896583719e-10 -1.5951995373402068e-12  1.9999999996956470e+02 -8.5554625926628536e-11 -3.7988658645657582e-11  1.9999999996938831e+02 -1.4605181633351593e-10 -9.6674473253316415e-11  1.9999999997024307e+02 -1.0052401111789575e-10 -1.1063154572969794e-10  1.9999999996963686e+02 7.2356835329233572e-11 8.2167012991579108e-11  1.9999999996962771e+02 6.8686387299104114e-11 6.9926221354711442e-11  1.9999999996957075e+02 -8.5594141707125820e-11 -9.9064659274307553e-11  1.9999999997110339e+02 5.3974390329798574e-11 7.9889862902926064e-11  1.9999999997025930e+02 -1.1789708424752581e-10 -1.6706153905373629e-10  1.9999999997030636e+02 -5.9006570907823506e-11 9.7968242493893778e-13  1.9999999997115717e+02 1.0886690165044802e-10 3.8231110419233153e-11  1.9999999997025986e+02 -1.6983509914143106e-10 -1.3945232777241575e-10  1.9999999997024850e+02 -2.3020941244774678e-11 -6.2807798312271754e-11  1.9999999996813105e+02 1.0986324452688111e-10 4.9085166184630257e-11  1.9999999996804900e+02 -9.3331445147797106e-11 -3.3040008475833865e-11  1.9999999996787940e+02 -1.0532176216943258e-10 -1.1046464410590729e-10  1.9999999996872128e+02 -1.1038861576168258e-10 -8.5811522789221525e-11  1.9999999996809200e+02 7.4125371531636790e-11 5.7385669521440159e-11  1.9999999996806372e+02 7.5846402469637860e-11 4.3811058350339060e-11  1.9999999996801108e+02 -2.6295403254545377e-11 -2.0934886191358427e-11  1.9999999996869050e+02 -1.0469901922739284e-10 -1.8669159627868549e-10  1.9999999996880948e+02 -1.3202553587182609e-12 -6.7216665117919581e-11  1.9999999996871389e+02 -1.7056901179514007e-10 -1.0429124732328303e-10  1.9999999996880953e+02 -1.2217214718118697e-10 -6.1480072415212883e-12  1.9999999996647762e+02 4.6823279875676175e-11 3.8323459399257292e-11  1.9999999996631982e+02 -1.3892571557943135e-10 -2.0285883111822363e-11  1.9999999996620778e+02 9.6372514336920340e-12 5.2868576628545368e-12  1.9999999996721090e+02 -8.4552866719954852e-11 -9.9036013562051035e-11  1.9999999996647691e+02 3.4672376175006334e-11 1.9258474874814507e-11  1.9999999996649720e+02 2.7635634967412504e-11 2.0130080433428773e-11  1.9999999996629924e+02 -2.3940983169228651e-11 1.1422730358557376e-11  1.9999999996724702e+02 -9.5695100371949354e-11 -2.2476695090061187e-10  1.9999999996729753e+02 -1.7132372030614616e-11 -3.2756993675928202e-11  1.9999999996721158e+02 -1.5035217890101897e-10 -1.1059328620764648e-10  1.9999999996727416e+02 -9.5928622742713831e-11 6.7288296271210389e-11  1.9999999996726018e+02 -7.7113986136662018e-11 -4.1736654365632439e-11  1.9999999997111831e+02 -1.0986965916534794e-10 -1.7094323428940533e-11  1.9999999997089282e+02 -8.6833029458043428e-11 -1.1665814527115200e-10  1.9999999997173595e+02 -1.0879596581834946e-10 -1.0000841781734173e-10  1.9999999997112675e+02 7.5581136678900651e-11 9.5267055861152827e-11  1.9999999997116910e+02 7.4833673985095966e-11 6.6721368445997011e-11  1.9999999997103592e+02 -5.1606458326055314e-11 -2.0712532267774772e-11  1.9999999997114094e+02 9.9685984729782372e-11 9.6754097013846120e-11  1.9999999997109077e+02 -4.2080708848107778e-11 -7.8131163667465360e-11  1.9999999997018324e+02 -1.3344798242918915e-10 -9.9094284717173625e-11  1.9999999997020984e+02 -1.1033043187744708e-10 -8.3433901615997240e-11  1.9999999996952752e+02 -7.6005796433453531e-11 -4.8392569913631724e-11  1.9999999996958854e+02 9.2331559127751785e-11 9.1633600555829617e-11  1.9999999997021573e+02 -1.4072397673992451e-10 -1.5300089486177393e-10  1.9999999997030145e+02 -6.6596933711555964e-11 5.4550601849554691e-11  1.9999999996803226e+02 1.3732462950668876e-11 -4.4908700844360038e-11  1.9999999996869371e+02 -1.1081300764870695e-10 -1.2201326325195232e-10  1.9999999996869266e+02 -1.3498748313135495e-10 -1.0954421247588231e-10  1.9999999996807421e+02 7.3338945818538340e-11 9.1311277008167310e-11  1.9999999996724875e+02 -1.8850265497822549e-10 -9.0846556484021818e-11  1.9999999996722124e+02 -1.1791267666699520e-10 -1.0453318154947542e-10  1.9999999996872342e+02 -8.7899683486114833e-11 -9.1957158424422740e-11  1.9999999996782708e+02 -1.1055365186755874e-10 -9.9304260817489506e-11  1.9999999996808742e+02 -1.3045279501235512e-10 -6.8650171867054226e-11  1.9999999996808938e+02 5.1838421418584770e-11 9.5757310253920045e-11  1.9999999996806750e+02 -4.8903936639498376e-11 -1.0965433542363920e-10  1.9999999996721118e+02 -9.8839177012135865e-11 -9.7294287840641601e-11  1.9999999996623754e+02 2.3999380976564522e-11 1.9448828025596325e-11  1.9999999996637945e+02 -1.5588033949771011e-10 3.4379576338336995e-12  1.9999999996645028e+02 1.8631522334911346e-11 4.2736162431343658e-11  1.9999999996632900e+02 1.5282773595391909e-11 -1.4503144150496022e-11  1.9999999996647455e+02 2.3295528991113266e-11 4.8434142860106964e-11  1.9999999996631990e+02 -7.9717184730534601e-12 -1.4615663972499790e-10  1.9999999996724753e+02 -9.0863194492215186e-11 -1.1511735559407004e-10  1.9999999996731739e+02 -2.4521702999792730e-11 -1.8006844524316155e-11  1.9999999996723454e+02 -1.3286639602435397e-10 -1.2036853314548871e-10  1.9999999996729903e+02 -9.3340436109181886e-11 -2.4119856692457267e-11  1.9999999996960418e+02 -1.0617809652004319e-10 7.8411808779807369e-12  1.9999999996937458e+02 -9.7349353537515959e-11 -6.7432247982024770e-11  1.9999999997020922e+02 -8.5323071559616963e-11 -7.4641464737594747e-11  1.9999999996961876e+02 6.3217105101437965e-11 8.9919239416192014e-11  1.9999999996800042e+02 -8.0190997400446390e-11 -9.0492398471837354e-12  1.9999999996787241e+02 -9.9447242752796216e-11 -8.6038522136468006e-11  1.9999999996868434e+02 -8.9603889932676651e-11 -8.0905882478673338e-11  1.9999999996806287e+02 4.6374408327435279e-11 8.3471620071082268e-11  1.9999999996869093e+02 -1.1592165283736583e-10 -1.3248284504421128e-10  1.9999999996879538e+02 1.2345818208074786e-11 3.2314765802366190e-11  1.9999999996875840e+02 -6.7278802129452001e-11 1.0184859587461152e-12  1.9999999996723034e+02 -1.5383609753827721e-10 -9.8555888424100926e-11  1.9999999996720138e+02 -1.1974378904741542e-10 -1.0816631316897366e-10  1.9999999996631206e+02 -1.5878592588406595e-10 -2.2292546236864853e-11  1.9999999996650939e+02 6.3670601080615623e-12 2.3167839858785461e-11  1.9999999996721616e+02 -1.3061663508972843e-10 -8.6777301276466284e-11  1.9999999996720544e+02 -1.1462077847112446e-10 -1.5344529279860723e-10  1.9999999997908495e+02 7.7304748383741864e-11 1.7860372918372188e-11  1.9999999997880778e+02 -5.7106293449055083e-11 1.0050659936359840e-12  1.9999999997901969e+02 -3.1275389352232583e-11 -8.2064472833021576e-11  1.9999999997978483e+02 -8.9385870693923569e-11 -1.0415751590205721e-12  1.9999999997912036e+02 1.0559640539651204e-10 1.0707761329144410e-10  1.9999999997902222e+02 -1.4926118467333649e-12 -3.7448506332633100e-11  1.9999999997908003e+02 1.2560056041632713e-10 3.5929122504984176e-11  1.9999999998077246e+02 8.2198802846372357e-11 5.8753638876107981e-11  1.9999999997973967e+02 -7.1675025032424829e-11 -1.5014322169371983e-10  1.9999999997980609e+02 -3.1290485890257999e-11 -4.6859507318325977e-11  1.9999999998059457e+02 4.7148044997196337e-12 7.0070542988312630e-11  1.9999999998071695e+02 -2.9532220604249016e-11 -4.2648686735817978e-11  1.9999999998080690e+02 9.3384111222868106e-11 7.1702964751845281e-11  1.9999999997984901e+02 -4.8017546393104472e-11 5.0860843314409413e-11  1.9999999997746193e+02 1.2464260144415646e-10 6.5931745605534780e-11  1.9999999997739374e+02 -2.2472835443203026e-10 -1.8596442605279732e-10  1.9999999997744564e+02 -3.9113748338472968e-11 1.4920854606567782e-12  1.9999999997819813e+02 -5.2285474220193759e-11 -9.8966592964721302e-11  1.9999999997744007e+02 9.3252231441776773e-11 1.3095562072320297e-11  1.9999999997735824e+02 -6.8070294054403157e-11 6.1166244261198486e-12  1.9999999997744857e+02 1.4421874123953983e-10 5.7088014588557628e-11  1.9999999997746744e+02 -1.1154225014566129e-10 -1.1281268627945385e-11  1.9999999997749023e+02 6.5153553780062949e-11 7.8109664447434804e-11  1.9999999997739667e+02 -5.1590509822479871e-11 -1.3490583018028228e-11  1.9999999997805389e+02 -9.6693183204633329e-11 -2.5170583366639813e-10  1.9999999997817633e+02 -2.8873577366851309e-11 -3.2210021158074264e-11  1.9999999997818375e+02 -7.2394676226492100e-11 -1.8617752669778744e-11  1.9999999997590012e+02 1.0844793621859756e-10 1.2212901750430499e-11  1.9999999997580042e+02 -3.3433493301114708e-11 -2.0771735267435676e-11  1.9999999997565877e+02 -9.3188333976621186e-11 -1.1305007949598278e-10  1.9999999997651500e+02 -8.4571379670474412e-11 -9.7248782105587726e-11  1.9999999997587736e+02 1.0173811259579868e-10 7.6613311673925228e-11  1.9999999997586684e+02 6.6158180944013467e-11 1.0309829240273239e-10  1.9999999997576558e+02 -6.8176023378631808e-11 -4.0467957706198235e-12  1.9999999997652228e+02 -1.3041451054825714e-10 -1.0854549467759304e-10  1.9999999997658358e+02 -4.3238237644733612e-11 1.2561436096449054e-11  1.9999999997651409e+02 -1.7125139680262284e-10 -1.1597624797406090e-10  1.9999999997657250e+02 -3.1392420073904796e-11 1.0999267064217690e-10  1.9999999997657068e+02 -1.8419806899524734e-11 6.8126980129680977e-12  1.9999999997426903e+02 1.1203069781066083e-10 -1.1661614782091343e-11  1.9999999997418320e+02 -3.0726058974763579e-11 -1.3554876884239147e-11  1.9999999997398058e+02 -1.3409483095856823e-10 -1.0730669669103728e-10  1.9999999997493720e+02 -9.2126433800408135e-11 -8.7676162287210779e-11  1.9999999997413400e+02 -5.6095004461383978e-11 1.0085436945768623e-10  1.9999999997478466e+02 -2.0261337087487652e-10 -9.3965255342218689e-11  1.9999999997426008e+02 9.3637615504793740e-11 6.1837546090078969e-11  1.9999999997428569e+02 5.2704981621061928e-11 4.7124137532425559e-11  1.9999999997417822e+02 -4.2909987969043169e-11 -7.8743020059921267e-12  1.9999999997489243e+02 -1.2808627484760616e-10 -1.8562902839447082e-10  1.9999999997495453e+02 -2.1279718871173721e-11 -3.9071862097940724e-12  1.9999999997487083e+02 -1.3739093786813086e-10 -1.2625517270795673e-10  1.9999999997497594e+02 -2.2625550366227554e-11 7.4122713997363221e-11  1.9999999997498779e+02 1.6026010768949804e-11 -1.5262780834425289e-11  1.9999999997276967e+02 1.1954893964361637e-10 -6.9139953846652585e-12  1.9999999997264078e+02 4.2557881601421611e-11 -1.3663250488869849e-11  1.9999999997253076e+02 -1.2587562778008273e-10 -7.8430513951423825e-11  1.9999999997336735e+02 -9.3600636125037162e-11 -6.3821787725542459e-11  1.9999999997259795e+02 -6.4921959791496293e-11 2.9758964294069841e-11  1.9999999997322914e+02 -2.1051767582515373e-10 -8.6013006321971005e-11  1.9999999997273977e+02 1.0494596488186567e-10 5.1796963535490940e-11  1.9999999997270552e+02 6.4878439354842527e-11 8.8887542780944363e-11  1.9999999997261699e+02 -4.3754065376241400e-11 -3.1144277768970461e-11  1.9999999997329954e+02 -1.4056662166508588e-10 -2.1179431187000402e-10  1.9999999997331170e+02 -1.5902401753837859e-10 -9.6631407443878763e-11  1.9999999997337395e+02 -9.3646451086596877e-12 2.8019867652310849e-11  1.9999999997341851e+02 1.2655733241799119e-11 -2.4918199400631317e-11  1.9999999997119323e+02 8.1503552159000074e-11 5.1592134251529227e-11  1.9999999997090626e+02 -1.5339075688505564e-10 1.6225650236533054e-11  1.9999999997112414e+02 -6.7342430427009093e-11 -4.9830061618289006e-13  1.9999999997183167e+02 -9.0742559082573859e-11 -4.3668604869425300e-11  1.9999999997105536e+02 -5.7160299877079634e-11 -8.6005635401089413e-11  1.9999999997118206e+02 9.9266979892486901e-11 -1.0885610748683419e-11  1.9999999997182027e+02 -1.4639854971598062e-10 -1.4867502885202193e-10  1.9999999997191065e+02 -6.7283186811494376e-11 -5.5371268459524473e-11  1.9999999997183482e+02 4.0252481881665669e-11 -3.8984799722850036e-11  1.9999999997176516e+02 -2.0098812907953274e-10 -7.5197917595328907e-11  1.9999999997021405e+02 -1.4835556392447034e-10 -2.2037321710870417e-10  1.9999999997023784e+02 -8.6988869727833095e-11 -2.0831363758755133e-11  1.9999999996941929e+02 -5.4775917037743210e-11 -4.9881269352348357e-11  1.9999999996963615e+02 7.8076332758021133e-11 -5.6280016410419517e-11  1.9999999997023048e+02 -8.8641038730081689e-11 -3.5513842092960971e-11  1.9999999997655064e+02 -3.7264349361997293e-11 -5.5015202601021553e-11  1.9999999997559686e+02 -8.5113496237151666e-11 -4.0164380359480799e-11  1.9999999997579556e+02 -2.8343022228485308e-11 -5.0065234000307037e-12  1.9999999997586613e+02 1.2429165949795446e-10 1.1078657950686193e-11  1.9999999997656082e+02 -1.0937935002821224e-10 -2.4887691104339726e-10  1.9999999997489277e+02 -6.4362716598650606e-11 -5.8567240356104893e-11  1.9999999997396483e+02 -8.0109400514675484e-11 -3.2438361806848465e-11  1.9999999997418888e+02 -1.0521586488298560e-11 -5.3066139845315932e-11  1.9999999997429046e+02 1.1382585435265210e-10 1.9884933310782730e-12  1.9999999997488524e+02 -1.1979333336636133e-10 -2.0290839693979960e-10  1.9999999997496207e+02 -1.0567609626161335e-10 -3.3388553702689247e-12  1.9999999997334280e+02 -4.5525664027413982e-11 -6.0358475502034969e-11  1.9999999997244066e+02 -8.2650643537685968e-11 -5.0059472315326651e-11  1.9999999997264567e+02 -3.0812989950014331e-11 -6.1011014380162860e-11  1.9999999997275469e+02 1.2306231624564835e-10 -2.6425558230379398e-11  1.9999999997331122e+02 -1.0913662168515563e-10 -2.0188598158056469e-10  1.9999999997339594e+02 -5.7317415066789977e-11 -1.1667728362147164e-11  1.9999999997181374e+02 -5.6441091106056191e-11 -1.4325841321557326e-11  1.9999999997178134e+02 -1.1733033850477616e-10 -2.9499656427038851e-10  1.9999999997098632e+02 -5.8466510036277952e-11 -6.5007435644737685e-11  1.9999999997116632e+02 9.6465203328903834e-11 -5.2831942316053120e-11  1.9999999997179683e+02 -8.1733367115122471e-11 -6.2377068056680247e-11  1.9999999997903581e+02 -1.8305142221428256e-11 -5.8220028386112527e-11  1.9999999997884788e+02 -1.1354936290122489e-10 -1.3592090191488836e-10  1.9999999997972773e+02 -7.7939983292997507e-11 -4.6703924941716584e-11  1.9999999997904544e+02 9.0968614574348811e-11 9.7046899984104158e-11  1.9999999997904146e+02 1.3307036168125798e-11 1.0476025595734974e-10  1.9999999997901944e+02 -3.6300423120838562e-11 -1.2590202901177991e-10  1.9999999997979620e+02 -7.9891618295134603e-11 -6.6802249208800902e-11  1.9999999997971821e+02 -1.7671844173391694e-10 -6.6591401727855285e-11  1.9999999997977653e+02 -7.9426669677477401e-11 2.0610027711052649e-11  1.9999999998062177e+02 1.7238030765216235e-11 -1.9172962674883980e-11  1.9999999997737322e+02 -4.8134701650752144e-11 -6.7149197120768800e-11  1.9999999997722571e+02 -7.8774278111233630e-11 -1.1783968410334192e-10  1.9999999997813703e+02 -8.7072806583707128e-11 -1.1589677947844563e-10  1.9999999997750854e+02 9.9705805351835082e-11 6.6620155172712434e-11  1.9999999997751203e+02 3.1142320380354178e-12 1.1325638713914002e-10  1.9999999997742245e+02 -1.0566557619875987e-10 -4.7247831645384971e-11  1.9999999997811352e+02 -8.6365498052882090e-11 -1.8229804408824804e-10  1.9999999997816536e+02 -5.4726888634731616e-11 -9.5494838647491379e-11  1.9999999997809948e+02 -2.1022606693139679e-10 -1.3143707865504404e-10  1.9999999997814930e+02 -1.7167618113777955e-11 -4.2728757600107298e-11  1.9999999997580059e+02 -1.9606917890850186e-11 -4.8861265850697079e-11  1.9999999997562418e+02 -6.3697683407428532e-11 -1.1766684449048872e-10  1.9999999997652765e+02 -9.6587784743555922e-11 -9.9224050446082031e-11  1.9999999997590638e+02 8.6819143565667417e-11 4.6554119693624913e-11  1.9999999997590714e+02 5.6418243839095244e-12 1.0495290731236424e-10  1.9999999997579053e+02 -2.7246850340628107e-11 -4.2513471917336492e-11  1.9999999997647237e+02 -1.0749007704933150e-10 -1.8682120094624822e-10  1.9999999997656070e+02 -1.3819553497228085e-11 -1.0029954909603289e-10  1.9999999997653399e+02 -1.8178485782608697e-10 -1.3137128348877552e-10  1.9999999997658290e+02 -6.4923443729284096e-12 -2.2387185369306627e-11  1.9999999997417666e+02 -3.9524378191397693e-11 -4.4778300819992058e-11  1.9999999997402381e+02 -1.0485696819272907e-10 -9.4821623482363242e-11  1.9999999997492534e+02 -8.8279885193865075e-11 -7.6932807913024897e-11  1.9999999997428395e+02 5.5616181331174305e-11 7.3405669943595966e-11  1.9999999997429853e+02 5.6696673891499770e-12 9.4688750058220371e-11  1.9999999997418377e+02 -6.2317995616229352e-11 -3.6323902302411597e-11  1.9999999997488700e+02 -8.5908385289442072e-11 -1.9605847944028472e-10  1.9999999997498102e+02 -2.6058064284637187e-11 -1.3214156188337646e-10  1.9999999997484710e+02 -1.9955310221484359e-10 -8.8590184059986896e-11  1.9999999997492333e+02 -2.3219898713531865e-11 -3.7553249136554695e-11  1.9999999997260758e+02 -1.2884538648830367e-13 -8.6207016522808470e-11  1.9999999997249299e+02 -1.5326238736319385e-10 -1.1306555727040721e-10  1.9999999997338622e+02 -1.0248862991130132e-10 -8.8012618941529014e-11  1.9999999997270075e+02 6.7915180034719671e-11 9.1648276998316463e-11  1.9999999997268395e+02 3.1291873461224230e-11 8.5094367757086188e-11  1.9999999997260284e+02 -9.3110760718077714e-11 -2.7608488761154660e-11  1.9999999997330062e+02 -1.1878559686027422e-10 -2.2155533028525126e-10  1.9999999997339140e+02 -2.4589394815095883e-11 -1.1367171661742235e-10  1.9999999997331784e+02 -2.3475617346247105e-10 -9.7512156557857945e-11  1.9999999997335604e+02 -1.5446162101665926e-11 -2.7275558323958656e-11  1.9999999997109410e+02 -2.2514948919308769e-11 -6.4266200134135768e-11  1.9999999997105959e+02 -1.5504476273188133e-11 -3.5131439233019431e-11  1.9999999997182363e+02 -8.6446236267115924e-11 -1.0693831312745721e-10  1.9999999997115901e+02 3.8158533893148183e-11 6.2476999755059982e-11  1.9999999997109299e+02 -4.2605571274504472e-11 2.1678368756305472e-11  1.9999999997177480e+02 -1.7455114386541613e-10 -1.1590225750376235e-10  1.9999999997179339e+02 -1.8602422833835976e-10 -1.561