<?xml version="1.0"?>
<VTKFile type="UnstructuredGrid"  version="0.1"  >
<UnstructuredGrid>
<Piece  NumberOfPoints="3917" NumberOfCells="19156">
<Points>
<DataArray  type="Float64"  NumberOfComponents="3"  format="ascii">25 27.5 35  26.25 28.75 35  25 28.75 35  26.25 28.75 33.75  25 30 35  26.25 30 35  27.5 30 35  25 28.75 36.25  23.75 28.75 36.25  25 30 36.25  25 30 37.5  25 27.5 36.25  25 27.5 37.5  25 28.75 37.5  26.25 28.75 36.25  26.25 30 36.25  27.5 30 36.25  27.5 30 37.5  26.25 28.75 37.5  26.25 30 37.5  26.25 31.25 36.25  27.5 31.25 36.25  27.5 31.25 37.5  27.5 32.5 37.5  26.25 31.25 37.5  25 32.5 37.5  26.25 32.5 37.5  25 32.5 35  26.25 32.5 36.25  25 32.5 36.25  26.25 33.75 36.25  26.25 33.75 37.5  26.25 28.75 38.75  26.25 30 38.75  27.5 30 38.75  27.5 30 40  25 27.5 40  26.25 28.75 40  25 28.75 40  25 30 40  26.25 30 40  25 30 38.75  26.25 31.25 38.75  27.5 31.25 38.75  27.5 32.5 38.75  27.5 32.5 40  27.5 31.25 40  26.25 31.25 40  26.25 32.5 38.75  26.25 33.75 38.75  27.5 33.75 38.75  27.5 33.75 40  27.5 35 40  26.25 33.75 40  26.25 28.75 41.25  26.25 30 41.25  27.5 30 41.25  27.5 30 42.5  25 27.5 42.5  26.25 28.75 42.5  25 28.75 42.5  25 30 42.5  26.25 30 42.5  25 30 41.25  26.25 31.25 41.25  27.5 31.25 41.25  27.5 32.5 41.25  27.5 32.5 42.5  27.5 31.25 42.5  26.25 31.25 42.5  26.25 32.5 41.25  27.5 33.75 41.25  26.25 33.75 41.25  27.5 35 41.25  27.5 35 42.5  27.5 33.75 42.5  26.25 33.75 42.5  26.25 35 41.25  27.5 36.25 41.25  27.5 36.25 40  26.25 36.25 41.25  27.5 37.5 40  27.5 37.5 41.25  27.5 37.5 42.5  27.5 36.25 42.5  26.25 36.25 42.5  26.25 37.5 41.25  26.25 38.75 41.25  27.5 38.75 41.25  25 28.75 43.75  23.75 28.75 43.75  25 30 43.75  25 30 45  25 27.5 43.75  25 27.5 45  25 28.75 45  26.25 28.75 43.75  26.25 30 43.75  27.5 30 43.75  27.5 30 45  26.25 28.75 45  26.25 30 45  26.25 31.25 43.75  27.5 31.25 43.75  27.5 32.5 43.75  27.5 32.5 45  27.5 31.25 45  26.25 31.25 45  26.25 32.5 43.75  25 31.25 45  25 32.5 45  26.25 32.5 45  27.5 33.75 43.75  26.25 33.75 43.75  27.5 35 43.75  27.5 35 45  27.5 33.75 45  26.25 33.75 45  26.25 35 43.75  26.25 35 45  27.5 36.25 43.75  26.25 36.25 43.75  27.5 37.5 43.75  27.5 37.5 45  27.5 36.25 45  26.25 36.25 45  26.25 28.75 46.25  26.25 30 46.25  27.5 30 46.25  27.5 30 47.5  25 28.75 46.25  25 27.5 46.25  25 27.5 47.5  26.25 28.75 47.5  25 28.75 47.5  25 30 47.5  26.25 30 47.5  25 30 46.25  26.25 31.25 46.25  27.5 31.25 46.25  27.5 32.5 46.25  27.5 32.5 47.5  27.5 31.25 47.5  26.25 31.25 47.5  26.25 32.5 46.25  26.25 33.75 46.25  27.5 33.75 46.25  27.5 35 46.25  27.5 35 47.5  27.5 33.75 47.5  26.25 33.75 47.5  26.25 35 46.25  25 35 47.5  26.25 35 47.5  27.5 36.25 46.25  26.25 36.25 46.25  27.5 37.5 46.25  27.5 37.5 47.5  27.5 36.25 47.5  26.25 36.25 47.5  26.25 37.5 46.25  27.5 38.75 46.25  27.5 38.75 45  26.25 38.75 46.25  27.5 40 45  27.5 40 46.25  27.5 40 47.5  27.5 38.75 47.5  26.25 38.75 47.5  25 28.75 48.75  23.75 28.75 48.75  25 30 48.75  25 30 50  26.25 28.75 48.75  26.25 30 48.75  27.5 30 48.75  27.5 30 50  26.25 30 50  26.25 31.25 48.75  27.5 31.25 48.75  27.5 32.5 48.75  27.5 32.5 50  27.5 31.25 50  26.25 31.25 50  26.25 32.5 48.75  26.25 32.5 50  27.5 33.75 48.75  26.25 33.75 48.75  27.5 35 48.75  27.5 35 50  27.5 33.75 50  26.25 33.75 50  26.25 35 48.75  26.25 35 50  26.25 36.25 48.75  27.5 36.25 48.75  27.5 37.5 48.75  27.5 37.5 50  27.5 36.25 50  26.25 36.25 50  26.25 37.5 48.75  27.5 38.75 48.75  26.25 38.75 48.75  27.5 40 48.75  27.5 40 50  27.5 38.75 50  25 22.5 37.5  26.25 22.5 38.75  26.25 22.5 37.5  26.25 21.25 38.75  27.5 22.5 37.5  27.5 22.5 38.75  27.5 22.5 40  25 22.5 38.75  25 22.5 40  26.25 22.5 40  25 23.75 38.75  25 23.75 37.5  23.75 23.75 38.75  23.75 23.75 37.5  25 25 37.5  25 25 38.75  25 25 40  25 23.75 40  26.25 23.75 38.75  26.25 23.75 37.5  27.5 23.75 38.75  27.5 23.75 37.5  27.5 25 37.5  27.5 25 38.75  27.5 25 40  27.5 23.75 40  26.25 23.75 40  26.25 25 38.75  26.25 25 37.5  26.25 25 40  26.25 26.25 38.75  26.25 26.25 37.5  27.5 26.25 38.75  27.5 26.25 37.5  27.5 27.5 37.5  27.5 27.5 38.75  27.5 27.5 40  27.5 26.25 40  26.25 26.25 40  25 26.25 37.5  26.25 27.5 38.75  26.25 27.5 37.5  25 26.25 38.75  25 26.25 40  26.25 27.5 40  25 27.5 38.75  27.5 28.75 38.75  27.5 28.75 40  27.5 22.5 41.25  27.5 21.25 41.25  26.25 21.25 41.25  27.5 22.5 42.5  27.5 20 42.5  27.5 21.25 42.5  25 20 42.5  26.25 21.25 42.5  26.25 20 42.5  26.25 22.5 41.25  25 22.5 42.5  26.25 22.5 42.5  25 22.5 41.25  26.25 23.75 41.25  27.5 23.75 41.25  27.5 25 41.25  27.5 25 42.5  27.5 23.75 42.5  26.25 23.75 42.5  26.25 25 41.25  25 23.75 41.25  25 23.75 42.5  25 25 42.5  26.25 25 42.5  25 25 41.25  26.25 26.25 41.25  27.5 26.25 41.25  27.5 27.5 41.25  27.5 27.5 42.5  27.5 26.25 42.5  26.25 26.25 42.5  26.25 27.5 41.25  25 26.25 42.5  26.25 27.5 42.5  25 27.5 41.25  27.5 28.75 41.25  27.5 28.75 42.5  26.25 21.25 43.75  27.5 21.25 43.75  27.5 22.5 43.75  27.5 22.5 45  26.25 20 43.75  27.5 20 43.75  27.5 20 45  27.5 21.25 45  25 20 45  26.25 21.25 45  26.25 20 45  26.25 22.5 43.75  25 22.5 45  26.25 22.5 45  26.25 23.75 43.75  27.5 23.75 43.75  27.5 25 43.75  27.5 25 45  27.5 23.75 45  26.25 23.75 45  26.25 25 43.75  25 25 45  26.25 25 45  25 25 43.75  25 26.25 43.75  23.75 26.25 43.75  25 26.25 45  26.25 26.25 43.75  27.5 26.25 43.75  27.5 27.5 43.75  27.5 27.5 45  27.5 26.25 45  26.25 26.25 45  26.25 27.5 43.75  26.25 27.5 45  27.5 28.75 43.75  27.5 28.75 45  27.5 20 46.25  27.5 18.75 46.25  26.25 18.75 46.25  27.5 20 47.5  27.5 17.5 47.5  27.5 18.75 47.5  26.25 18.75 47.5  26.25 20 46.25  25 20 47.5  26.25 20 47.5  26.25 21.25 46.25  27.5 21.25 46.25  27.5 22.5 46.25  27.5 22.5 47.5  27.5 21.25 47.5  26.25 21.25 47.5  26.25 22.5 46.25  25 21.25 47.5  25 22.5 47.5  26.25 22.5 47.5  25 22.5 46.25  26.25 23.75 46.25  27.5 23.75 46.25  27.5 25 46.25  27.5 25 47.5  27.5 23.75 47.5  26.25 23.75 47.5  26.25 25 46.25  25 23.75 47.5  25 25 47.5  26.25 25 47.5  25 25 46.25  26.25 26.25 46.25  27.5 26.25 46.25  27.5 27.5 46.25  27.5 27.5 47.5  27.5 26.25 47.5  26.25 26.25 47.5  26.25 27.5 46.25  25 26.25 46.25  25 26.25 47.5  26.25 27.5 47.5  27.5 28.75 46.25  27.5 28.75 47.5  27.5 18.75 48.75  26.25 18.75 48.75  27.5 20 48.75  27.5 20 50  27.5 17.5 50  27.5 18.75 50  26.25 18.75 50  26.25 20 48.75  25 20 50  26.25 20 50  26.25 21.25 48.75  27.5 21.25 48.75  27.5 22.5 48.75  27.5 22.5 50  27.5 21.25 50  26.25 21.25 50  26.25 22.5 48.75  25 22.5 50  26.25 22.5 50  25 22.5 48.75  26.25 23.75 48.75  27.5 23.75 48.75  27.5 25 48.75  27.5 25 50  27.5 23.75 50  26.25 23.75 50  26.25 25 48.75  25 25 50  26.25 25 50  25 25 48.75  25 26.25 48.75  23.75 26.25 48.75  25 27.5 48.75  25 27.5 50  25 26.25 50  26.25 26.25 48.75  27.5 26.25 48.75  27.5 27.5 48.75  27.5 27.5 50  27.5 26.25 50  26.25 26.25 50  26.25 27.5 48.75  26.25 27.5 50  25 28.75 50  27.5 28.75 48.75  27.5 28.75 50  26.25 28.75 50  25 22.5 35  25 23.75 35  25 23.75 33.75  23.75 23.75 33.75  25 25 35  23.75 23.75 35  27.5 22.5 35  27.5 23.75 35  26.25 23.75 35  26.25 23.75 33.75  27.5 25 35  26.25 25 35  25 25 32.5  26.25 25 33.75  25 25 33.75  25 26.25 33.75  25 26.25 32.5  23.75 26.25 33.75  25 27.5 32.5  25 27.5 33.75  25 26.25 35  26.25 26.25 33.75  26.25 26.25 35  27.5 26.25 35  27.5 27.5 35  26.25 27.5 35  26.25 27.5 33.75  27.5 28.75 35  25 23.75 36.25  23.75 23.75 36.25  25 25 36.25  23.75 25 36.25  27.5 23.75 36.25  26.25 23.75 36.25  27.5 25 36.25  26.25 25 36.25  25 26.25 36.25  23.75 26.25 36.25  26.25 26.25 36.25  27.5 26.25 36.25  27.5 27.5 36.25  26.25 27.5 36.25  27.5 28.75 36.25  27.5 28.75 37.5  27.5 22.5 32.5  27.5 23.75 32.5  27.5 23.75 31.25  26.25 23.75 31.25  27.5 25 32.5  26.25 23.75 32.5  26.25 25 32.5  26.25 25 31.25  30 22.5 32.5  30 23.75 32.5  30 23.75 31.25  28.75 23.75 31.25  30 25 32.5  28.75 23.75 32.5  28.75 25 32.5  31.25 23.75 32.5  31.25 22.5 32.5  31.25 23.75 31.25  32.5 22.5 32.5  32.5 23.75 32.5  32.5 25 32.5  31.25 25 32.5  32.5 22.5 30  33.75 23.75 31.25  33.75 22.5 31.25  33.75 22.5 30  35 22.5 30  35 23.75 31.25  35 22.5 31.25  35 22.5 32.5  35 23.75 32.5  35 25 32.5  32.5 22.5 31.25  33.75 23.75 32.5  33.75 22.5 32.5  33.75 25 32.5  36.25 23.75 31.25  36.25 22.5 31.25  36.25 22.5 30  37.5 22.5 30  37.5 23.75 31.25  37.5 22.5 31.25  37.5 22.5 32.5  37.5 23.75 32.5  37.5 25 32.5  36.25 23.75 32.5  36.25 22.5 32.5  36.25 25 32.5  38.75 23.75 31.25  38.75 22.5 31.25  38.75 22.5 30  40 22.5 30  40 23.75 31.25  40 22.5 31.25  40 22.5 32.5  40 23.75 32.5  40 25 32.5  38.75 23.75 32.5  38.75 22.5 32.5  38.75 25 32.5  41.25 23.75 31.25  41.25 23.75 32.5  41.25 25 32.5  42.5 25 32.5  26.25 26.25 32.5  26.25 26.25 31.25  32.5 22.5 33.75  32.5 21.25 33.75  31.25 21.25 33.75  32.5 22.5 35  32.5 20 35  32.5 21.25 35  31.25 21.25 35  31.25 22.5 33.75  30 22.5 35  31.25 22.5 35  30 22.5 33.75  33.75 22.5 33.75  33.75 21.25 33.75  33.75 21.25 32.5  35 22.5 33.75  35 22.5 35  33.75 21.25 35  33.75 22.5 35  27.5 23.75 33.75  27.5 25 33.75  30 23.75 33.75  28.75 23.75 33.75  30 25 33.75  30 25 35  30 23.75 35  28.75 23.75 35  28.75 25 33.75  28.75 25 35  31.25 23.75 33.75  32.5 23.75 33.75  32.5 25 33.75  32.5 25 35  32.5 23.75 35  31.25 23.75 35  31.25 25 33.75  31.25 25 35  33.75 23.75 33.75  35 23.75 33.75  35 25 33.75  35 25 35  35 23.75 35  33.75 23.75 35  33.75 25 33.75  33.75 25 35  36.25 23.75 33.75  37.5 23.75 33.75  37.5 25 33.75  37.5 25 35  36.25 22.5 33.75  37.5 22.5 33.75  37.5 22.5 35  37.5 23.75 35  36.25 23.75 35  36.25 22.5 35  36.25 25 33.75  36.25 25 35  38.75 23.75 33.75  40 23.75 33.75  40 25 33.75  40 25 35  38.75 22.5 33.75  40 22.5 33.75  40 22.5 35  40 23.75 35  38.75 23.75 35  38.75 22.5 35  38.75 25 33.75  38.75 25 35  41.25 23.75 33.75  41.25 22.5 32.5  42.5 22.5 32.5  42.5 23.75 33.75  42.5 23.75 32.5  42.5 25 33.75  42.5 25 35  41.25 22.5 33.75  42.5 22.5 33.75  42.5 22.5 35  42.5 23.75 35  41.25 23.75 35  41.25 22.5 35  41.25 25 33.75  41.25 25 35  43.75 23.75 33.75  43.75 22.5 33.75  43.75 23.75 35  43.75 22.5 35  45 22.5 35  45 23.75 35  45 25 35  43.75 2
[...]
<PointData  Vectors="u"> 
<DataArray  type="Float64"  Name="u"  NumberOfComponents="3" format="ascii">1.9999999998240423e+02 -5.8348655874837709e-11 5.4858455330914675e-11  1.9999999998142212e+02 2.6024106302691145e-11 -2.3076249977692434e-10  1.9999999998233554e+02 -2.0666750500949710e-11 -3.8946494860006032e-11  1.9999999998144375e+02 3.9102475747328777e-11 -6.0556860478167488e-11  1.9999999998248128e+02 -1.3685447896652128e-11 6.6517615297226525e-11  1.9999999998148979e+02 1.0202382933863939e-11 -1.1005663317034527e-10  1.9999999998077584e+02 2.8245748771727607e-11 5.0534193892955529e-11  1.9999999998220497e+02 2.1989741994704900e-11 -1.7746113734526098e-10  1.9999999998307845e+02 -4.2673909107029799e-11 -1.1984188849227726e-10  1.9999999998228577e+02 4.1001931185895812e-12 -1.1904157047642462e-10  1.9999999998248603e+02 -3.0455451735403045e-11 1.1875252668615767e-10  1.9999999998226463e+02 3.1271760701809972e-11 2.8646123425286198e-11  1.9999999998241768e+02 -1.0884795092453645e-10 2.7927772934969020e-11  1.9999999998237118e+02 -4.5847469983791668e-12 4.5112202333250788e-11  1.9999999998146438e+02 4.7120647191414904e-12 -9.7190115273918299e-11  1.9999999998135814e+02 -3.5062419367751686e-11 -2.5162778174659179e-10  1.9999999998060645e+02 3.9881851585335256e-11 -2.3845945339143136e-11  1.9999999998081057e+02 3.1851952063809179e-11 8.6302007532602588e-11  1.9999999998148328e+02 -7.1871860086565403e-12 -2.4002745080536472e-10  1.9999999998152083e+02 -2.4105081837741701e-11 -7.8895342052966307e-11  1.9999999998145788e+02 -6.5276750029354434e-11 -9.2627469204972228e-11  1.9999999998057092e+02 -8.6637363645243316e-11 -8.9667808306216524e-11  1.9999999998066832e+02 4.0353618124045326e-11 1.7523679689287548e-11  1.9999999998082410e+02 8.8572146688640380e-11 9.3760719741027402e-11  1.9999999998145080e+02 -4.2690612693973393e-11 -2.0505577708204825e-10  1.9999999998243086e+02 8.0262927716296075e-11 7.7856774307658832e-11  1.9999999998153777e+02 -1.3883630925709897e-11 -2.6644596683094350e-11  1.9999999998244763e+02 8.6282104063397795e-11 7.6888835066311798e-11  1.9999999998142786e+02 -2.1398733818942095e-10 -1.1232285467072794e-10  1.9999999998232647e+02 -2.0706522298484936e-11 -5.7628303938021000e-11  1.9999999998145063e+02 -1.0633715583284977e-10 -9.9645585910798120e-11  1.9999999998146723e+02 -1.1208456740598273e-10 -1.2880324752931409e-10  1.9999999998141178e+02 -1.7156704158510744e-12 -8.2770378143149952e-11  1.9999999998132179e+02 -1.3497087156849788e-11 -1.8962878039054473e-10  1.9999999998063311e+02 9.5568533580273997e-11 -6.6824625681124281e-11  1.9999999998081879e+02 3.8250203599142380e-11 1.4349628528417280e-10  1.9999999998248407e+02 -8.6891419655426286e-11 3.2666684000172830e-11  1.9999999998142397e+02 6.3066639260798958e-11 -1.9045908837998377e-10  1.9999999998241387e+02 -1.7477260928291166e-11 -8.7299680084573671e-12  1.9999999998253068e+02 1.1523174810004207e-11 1.3421586050592340e-10  1.9999999998147061e+02 -1.6204474635146217e-11 -3.2463818528617309e-11  1.9999999998235376e+02 -4.8613684408546619e-11 -3.0242367717879758e-11  1.9999999998147854e+02 -5.5537087960719437e-11 -6.1881792269454108e-11  1.9999999998056148e+02 -8.7699552140921208e-11 -1.3292539353741854e-10  1.9999999998064453e+02 3.7028361696246030e-11 -2.9215999202283743e-11  1.9999999998079304e+02 9.0959974583283177e-11 8.6341426556545035e-11  1.9999999998066116e+02 4.7575766135698964e-12 1.6247198902681520e-11  1.9999999998142434e+02 -6.8537111989707343e-11 -1.7349648132310683e-10  1.9999999998145228e+02 -2.0470300091836347e-10 -8.8468941977954553e-11  1.9999999998148050e+02 -7.8794073738091773e-11 -1.0086035232419038e-10  1.9999999998058880e+02 -1.3232790837508156e-10 -1.1535583037004867e-10  1.9999999998063601e+02 -4.9257257876279094e-11 -1.6998786086562787e-11  1.9999999998080099e+02 6.1299522644159412e-11 5.9858946840572382e-11  1.9999999998144801e+02 -1.2288649304420896e-10 -1.6461022470650069e-10  1.9999999998148095e+02 2.7239543883800323e-11 -1.0006474069721840e-10  1.9999999998135183e+02 -1.0370681015861157e-11 -2.4926267049715595e-10  1.9999999998062597e+02 2.7030444180657009e-11 -1.7601674215806135e-11  1.9999999998083206e+02 1.4542007570333881e-11 8.9855069654253934e-11  1.9999999998247222e+02 -7.3485385844247146e-11 8.4733874539728385e-11  1.9999999998147658e+02 3.2309548404356819e-11 -1.8289487185781147e-10  1.9999999998239576e+02 -3.2158849958873172e-11 -1.6046904528750648e-11  1.9999999998252130e+02 3.1488009866116361e-12 1.2479003501040065e-10  1.9999999998152401e+02 -2.2985566025109735e-11 -9.2553252347737019e-11  1.9999999998233062e+02 -2.7467457366449330e-11 -9.6139950456861650e-11  1.9999999998147769e+02 -8.4205641990826274e-11 -9.9826900809047935e-11  1.9999999998059957e+02 -9.2751133890856166e-11 -1.1721290868027491e-10  1.9999999998064067e+02 1.0659514581668729e-11 -6.3809872532045880e-11  1.9999999998081472e+02 8.4796272991143604e-11 7.2812769639582054e-11  1.9999999998069208e+02 -6.6228648710975871e-12 -1.8005192014439915e-11  1.9999999998145117e+02 -5.0445427485496103e-11 -2.1872858837427662e-10  1.9999999998145009e+02 -2.0551334222461648e-10 -1.1148782569034731e-10  1.9999999998062384e+02 -1.4086154081773721e-10 -1.3527144296898843e-10  1.9999999998143969e+02 -1.1023966300027473e-10 -1.0042054534322489e-10  1.9999999998062367e+02 -1.0812893714629858e-11 -3.5446844999646799e-11  1.9999999998082100e+02 8.1646662896102099e-11 6.9111875186493373e-11  1.9999999998061935e+02 -4.2348764979306906e-11 -1.8165655144074167e-11  1.9999999998143770e+02 -1.3992153005934751e-10 -1.5281618540723012e-10  1.9999999998143488e+02 -1.4700961418261562e-10 -1.0766448966988760e-10  1.9999999998055637e+02 -1.2720000755837423e-10 -1.1574041932890532e-10  1.9999999998060258e+02 4.9205671573446153e-12 -6.0742391289357822e-14  1.9999999998145367e+02 -9.3387469321778925e-11 -1.1161213280208305e-10  1.9999999998082075e+02 5.6830315379707599e-11 9.4695780890268411e-11  1.9999999998057874e+02 -2.0581405327007119e-11 -8.3142760951857049e-11  1.9999999998076927e+02 6.6592335882635173e-11 1.0485726074827759e-10  1.9999999998058138e+02 -5.2650170839975683e-11 -1.2163915500099903e-11  1.9999999998145918e+02 -9.0789877443740514e-11 -1.2396017110643452e-10  1.9999999998142837e+02 -1.9758533474241814e-10 -9.6356370016072109e-11  1.9999999998142681e+02 -8.1500776783202171e-11 -1.1002513650269912e-10  1.9999999998056990e+02 -1.0395390202680465e-10 -1.2922517412960180e-10  1.9999999998221972e+02 6.4484844955737144e-11 -1.0439874221671321e-10  1.9999999998312106e+02 -2.0313453659661044e-11 -5.4658895954489994e-11  1.9999999998232357e+02 -9.4780231071832884e-12 -6.9512615508259801e-11  1.9999999998250848e+02 3.3702234792247637e-12 1.4601698433434061e-10  1.9999999998227014e+02 1.0401212149759890e-10 -4.1186451620953489e-11  1.9999999998243334e+02 -8.7379060033648156e-11 9.0423046185097078e-11  1.9999999998238241e+02 3.5413973262158904e-11 2.1097305249979731e-11  1.9999999998147001e+02 2.9798412897110498e-11 -1.1012106183491630e-10  1.9999999998135809e+02 -4.6308232387989842e-11 -2.0249143533182151e-10  1.9999999998065087e+02 3.0917766987034227e-11 -4.3053455935482459e-11  1.9999999998083968e+02 4.8840763779227366e-11 9.7862432284936017e-11  1.9999999998139361e+02 5.5868813272859241e-11 -2.0461428852003974e-10  1.9999999998147501e+02 8.9987875182515730e-12 -6.7171295917824489e-11  1.9999999998145387e+02 -8.0344733669795157e-11 -6.9555858342008426e-11  1.9999999998064797e+02 -1.1772374946983548e-10 -1.2094986687797006e-10  1.9999999998065300e+02 2.8579571739430457e-11 -2.1071513242992657e-11  1.9999999998084544e+02 7.2439790366983337e-11 1.0197613329576506e-10  1.9999999998063649e+02 -2.0575794773209100e-12 2.6106666597855734e-11  1.9999999998144159e+02 -7.9136547369372127e-11 -1.4790467395749775e-10  1.9999999998144574e+02 -1.3796740373263583e-10 -1.3140905074426501e-10  1.9999999998235694e+02 -1.3968682611431870e-11 1.6878677129484878e-11  1.9999999998248921e+02 6.6077509737797074e-11 8.4815481736329653e-11  1.9999999998148024e+02 -4.5151544921036402e-11 1.9487564679510166e-11  1.9999999998057373e+02 -1.4602530526344964e-10 -1.1539836348244454e-10  1.9999999998145600e+02 -1.1883829499593981e-10 -1.3612074760661188e-10  1.9999999998060892e+02 1.4568288072275702e-11 2.6233117398510894e-13  1.9999999998081475e+02 9.3266168651826545e-11 8.0033226165127709e-11  1.9999999998066937e+02 -2.7124754368625786e-11 -7.9580646984619287e-12  1.9999999998142127e+02 -1.3595314805951667e-10 -1.5371398769385390e-10  1.9999999998146362e+02 -1.3849929061557802e-10 -1.1527966943637660e-10  1.9999999998152575e+02 6.9965692155717500e-11 -3.2722229808436149e-11  1.9999999998052419e+02 -1.5229279545001716e-10 -1.1686786979978257e-10  1.9999999998145660e+02 -7.2577167117757997e-11 -1.1012427026603951e-10  1.9999999998058883e+02 3.0767646706148998e-11 -2.2590550016467115e-11  1.9999999998078982e+02 6.3595545808034379e-11 1.0776393283221291e-10  1.9999999998060156e+02 -4.6476368629485927e-11 7.9418131604309756e-12  1.9999999998143556e+02 -1.1582805440503461e-10 -1.6588481447432111e-10  1.9999999998143650e+02 2.8863422448296135e-11 -8.8325574682932706e-11  1.9999999998133083e+02 3.5658179381933776e-12 -1.9940842814163768e-10  1.9999999998063984e+02 4.6653776285408535e-11 -6.5944940104279095e-11  1.9999999998085204e+02 3.8940624871426053e-11 6.7779838955520755e-11  1.9999999998222231e+02 8.8877587079062534e-11 -1.4696139908159557e-10  1.9999999998225726e+02 8.0736994974439900e-11 -5.8564687416136020e-11  1.9999999998242473e+02 -5.0184216291533518e-11 2.7880371501180929e-11  1.9999999998142562e+02 3.8026224166247556e-11 -1.7058382690871624e-10  1.9999999998239110e+02 3.6302518998825481e-11 -7.4355557792666605e-12  1.9999999998251576e+02 3.6168204507565409e-12 6.2420633402291988e-11  1.9999999998144668e+02 1.6944559043876716e-11 -8.7980216306115645e-11  1.9999999998230734e+02 -4.2135963306743266e-13 -6.0934487358643763e-11  1.9999999998144980e+02 -3.3200470132966891e-11 -8.5513129035943079e-11  1.9999999998057933e+02 -7.4106075281492928e-11 -1.4144205173282839e-10  1.9999999998061514e+02 -1.9793080687943240e-11 -4.1569642817977160e-11  1.9999999998080818e+02 8.6811384573251331e-11 3.7170487630839584e-11  1.9999999998064413e+02 1.5571637015505730e-12 -3.0636690992203183e-11  1.9999999998142971e+02 -7.2424822313268729e-11 -2.0810374924784308e-10  1.9999999998144602e+02 -2.4933549500822133e-10 -8.5970638483293800e-11  1.9999999998144298e+02 -1.2375428823508360e-10 -1.0043340987769660e-10  1.9999999998062370e+02 -1.2761956387963512e-10 -1.1479994719795671e-10  1.9999999998061088e+02 -2.3382867667741583e-11 -3.7950393171864676e-11  1.9999999998082646e+02 9.5263251893583737e-11 5.4573437882382161e-11  1.9999999998064425e+02 -3.7464874239782626e-11 -4.0918084626404341e-11  1.9999999998146794e+02 -1.0771045532114444e-10 -1.7682380904296382e-10  1.9999999998141465e+02 -1.6631122271266360e-10 -7.8106389712123633e-11  1.9999999998246420e+02 1.2891033888424395e-10 1.9489899330937878e-11  1.9999999998148931e+02 -1.5250411134682443e-11 -3.4674497957052162e-11  1.9999999998057376e+02 -1.0582335961093706e-10 -1.0628562158861498e-10  1.9999999998146248e+02 -1.0318309508586403e-10 -1.3531788212792044e-10  1.9999999998061824e+02 -2.2142087673214745e-11 -8.1729883444476754e-11  1.9999999998083348e+02 5.3552722093470595e-11 2.1847479462593015e-11  1.9999999998066639e+02 -5.6233209043414458e-11 -5.0608992798180591e-11  1.9999999998144290e+02 -1.4084353805663190e-10 -1.9894467197006575e-10  1.9999999998146879e+02 -1.7027560553718975e-10 -1.4054439228605786e-10  1.9999999998059036e+02 -1.4923553838029064e-10 -1.3603310330708541e-10  1.9999999998061483e+02 -1.1745184287467817e-11 2.2056575338085046e-11  1.9999999998144906e+02 -1.0916381114269468e-10 -1.2638986513299116e-10  1.9999999998080111e+02 7.2945341480790003e-11 6.1349505662115176e-11  1.9999999998061980e+02 -7.0022315472508465e-12 -1.2974500735306822e-11  1.9999999998081537e+02 1.0048143998061685e-10 4.4113095803271357e-11  1.9999999998063890e+02 -2.3044747163689856e-11 -4.3319490436337174e-11  1.9999999998142735e+02 -1.2200100070744175e-10 -2.1984691365870705e-10  1.9999999998212854e+02 1.7663617258231852e-11 2.8499010832707619e-11  1.9999999998305782e+02 3.7487515288142653e-12 5.9088349638169141e-11  1.9999999998234256e+02 5.0541376534174357e-12 2.6331414277623562e-11  1.9999999998243641e+02 -6.6695625435050053e-12 -4.9132197571003149e-10  1.9999999998144634e+02 6.7730317456329375e-11 -7.1518140577677158e-12  1.9999999998132921e+02 3.8981914858633957e-12 -7.9361624335479710e-11  1.9999999998063493e+02 5.3772473667442283e-11 -9.0212514013513386e-12  1.9999999998080779e+02 -1.0811310477518567e-11 -4.7064244267358810e-10  1.9999999998148030e+02 -3.4142444003420439e-12 -2.7990320147291889e-11  1.9999999998143954e+02 -9.2164534588451443e-11 9.0103869160379934e-12  1.9999999998057302e+02 -7.5875590121935290e-11 -3.7158529473677948e-11  1.9999999998063331e+02 7.5505803932736530e-12 4.6722821698259300e-11  1.9999999998079244e+02 9.9349543851428869e-11 -4.5741082532238747e-10  1.9999999998063424e+02 2.0271806044054176e-11 1.4861433029154993e-11  1.9999999998152947e+02 2.0337243069298835e-11 1.6757199879150320e-10  1.9999999998145915e+02 -1.9499717491637021e-10 4.2073156488099446e-12  1.9999999998153973e+02 6.2171153769597420e-11 -4.1075756708174779e-11  1.9999999998059141e+02 -1.3324677111358248e-10 1.0201228202067775e-11  1.9999999998145407e+02 -9.8180729982972020e-11 2.4397032428080475e-11  1.9999999998063106e+02 -1.7726473770752984e-11 -1.5973751300054214e-11  1.9999999998079579e+02 3.3701234311196622e-11 -4.6261599498472993e-10  1.9999999998060753e+02 -6.6492556958578870e-11 -3.5877849322091227e-11  1.9999999998155533e+02 2.3889662333384602e-11 2.5151782188323541e-10  1.9999999998141084e+02 -2.4453739087139230e-10 5.7102985225039986e-12  1.9999999998146367e+02 -9.1416979219170766e-13 -2.0389564276120538e-12  1.9999999998143059e+02 -1.2085195990741470e-10 1.9136102381088858e-11  1.9999999998057646e+02 -1.3673652134700595e-10 -3.1866235401600614e-11  1.9999999998065894e+02 -1.3445599055100577e-11 2.5375647135085417e-11  1.9999999998078738e+02 5.3582419151139124e-11 -4.8473425055791859e-10  1.9999999998065934e+02 -2.4733277503106496e-11 1.3933138322703548e-11  1.9999999998150204e+02 -2.0259823787337840e-11 1.2105582851419226e-10  1.9999999998142479e+02 -1.9066390719300567e-10 1.4963914254073488e-11  1.9999999998056967e+02 -8.6557887652652028e-11 5.1123878579041625e-12  1.9999999998142499e+02 -1.1620640130596208e-10 4.3075529777907149e-11  1.9999999998062395e+02 1.0787575794954893e-11 2.9384106083217728e-11  1.9999999998079400e+02 5.8051345422958188e-11 -5.1638363843488051e-10  1.9999999998061770e+02 1.5199942595428189e-12 -1.9546684425010008e-11  1.9999999998246989e+02 1.1830958158489053e-10 -6.3211827744953569e-11  1.9999999998141536e+02 -1.3649670970228265e-10 -1.1176665230395206e-10  1.9999999998146029e+02 -5.3518228137148275e-11 3.1905042619613522e-11  1.9999999998145319e+02 -6.7882000631819971e-11 -1.3508586778779267e-10  1.9999999998075936e+02 7.2188468456307250e-11 3.3126362811280424e-11  1.9999999998062958e+02 -1.2958177630717141e-11 -5.1790495264736219e-11  1.9999999998080179e+02 7.9613035270750184e-11 9.7865690516402627e-11  1.9999999998234784e+02 1.7395769835705868e-11 -3.5653544236738211e-11  1.9999999998246668e+02 8.9016776469803258e-11 1.1429688459799375e-10  1.9999999998148675e+02 6.9355299777848880e-11 -1.9960577840869662e-11  1.9999999998218308e+02 -1.0265712668137976e-10 -1.4030846131856841e-10  1.9999999998229092e+02 -1.0468820545253056e-11 4.9682069299089990e-11  1.9999999998308618e+02 -5.8738418508717886e-11 -1.1501223581632236e-10  1.9999999998298105e+02 -2.3302466867017358e-10 -7.3619939247911248e-11  1.9999999998246963e+02 9.2022599865862373e-11 -3.7167919839698408e-11  1.9999999998232119e+02 -1.0070985973645925e-11 -3.1045345656886924e-11  1.9999999998243715e+02 1.3747346707400713e-10 9.0594682036841082e-11  1.9999999998233886e+02 -8.3654973936987751e-12 -5.6724688171935000e-11  1.9999999998140783e+02 -9.7540794042906155e-11 -1.0751006790869998e-10  1.9999999998128226e+02 -1.7744292493162138e-10 -8.3410265436683409e-11  1.9999999998058826e+02 -1.5254801241775676e-10 -1.3231273413863050e-10  1.9999999998061563e+02 1.4408455825711159e-11 8.4445251739725813e-11  1.9999999998075430e+02 7.3030615291079382e-11 1.2087526644301961e-12  1.9999999998060642e+02 4.3065406285240643e-11 -7.5616169500560404e-12  1.9999999998078340e+02 1.0633625989797243e-10 1.0361639203974105e-10  1.9999999998059758e+02 -1.6080455098917061e-11 2.6784975800720671e-11  1.9999999998144347e+02 -1.4001074111955440e-10 -2.0444115389102033e-10  1.9999999998139558e+02 -1.3485146232813382e-10 -1.0611550411383070e-10  1.9999999998144881e+02 -6.9333148703749047e-11 7.5267027799654147e-11  1.9999999998150946e+02 1.4611482401274790e-11 -2.5102713095635231e-11  1.9999999998138335e+02 -4.4754333964172360e-11 -9.9852797614408681e-11  1.9999999998127640e+02 -2.0053257886805789e-10 -3.2067892720009105e-11  1.9999999998055137e+02 -8.8727915101022022e-11 -1.1604483291844953e-10  1.9999999998060889e+02 -1.9482684407475110e-11 1.4177953410588520e-10  1.9999999998076976e+02 6.3512910489608588e-11 5.5685146379165427e-11  1.9999999998059681e+02 -6.3501501435646555e-11 -4.8661827244415539e-12  1.9999999998079463e+02 5.0748866915561220e-11 7.7018722008099774e-11  1.9999999998059690e+02 -6.2303554859475673e-11 8.2547876160709367e-12  1.9999999998138438e+02 -9.9657356429062584e-11 -2.0572082597340755e-10  1.9999999998220656e+02 3.2682215093899452e-11 5.6797511977003777e-11  1.9999999998147109e+02 -1.8216109648439005e-11 -1.9994774663955612e-11  1.9999999998148706e+02 2.4852891239932340e-11 1.1133100984363711e-10  1.9999999998228193e+02 1.9524952417173420e-11 -9.5059440011740413e-11  1.9999999998225724e+02 3.3592587952836118e-11 -1.5292793741665850e-11  1.9999999998142641e+02 -1.2945101653436978e-11 5.0554799074396599e-11  1.9999999998230743e+02 1.5240569117615247e-10 1.8505433324951525e-11  1.9999999998052576e+02 -9.4865279510321582e-11 -6.3709899454316135e-11  1.9999999998060198e+02 -1.5188874547616666e-11 6.1095709830521284e-11  1.9999999998060184e+02 1.2643579747063630e-11 -8.5847451292570811e-11  1.9999999998056262e+02 -9.6866491610905874e-11 -1.5681441990254692e-10  1.9999999998141362e+02 -8.0648785546465153e-11 -7.8697477831778387e-11  1.9999999998077976e+02 6.6069027647068611e-11 8.3320874893403106e-11  1.9999999998083243e+02 3.4398170898359494e-11 8.9582224543618530e-11  1.9999999998055338e+02 -4.2372187853191844e-11 -1.8929357653097752e-12  1.9999999998246182e+02 9.6069102620755205e-11 8.2913219713117283e-11  1.9999999998137662e+02 -8.2644325045922115e-11 -1.2451138035660225e-10  1.9999999998143176e+02 2.0951000142161126e-11 3.9543721428172572e-11  1.9999999998138716e+02 -1.4271730409098596e-10 -1.3878636717480159e-10  1.9999999998244365e+02 9.8297873039065794e-11 7.7365611147328460e-11  1.9999999998144185e+02 -4.2297757111734293e-11 -8.0553884826397565e-12  1.9999999998237064e+02 -1.3112928717158134e-11 -4.7324950204635080e-11  1.9999999998142235e+02 -9.7095854613561598e-11 -1.3201490341965815e-10  1.9999999998056472e+02 -1.1105987120287602e-10 -1.5173039048671112e-10  1.9999999998065121e+02 2.0880521474188689e-11 -4.6643622001945151e-11  1.9999999998079801e+02 1.1939652757549397e-10 1.0294739036983294e-10  1.9999999998063177e+02 -7.0275959981490672e-13 -2.1774209821745871e-11  1.9999999998134371e+02 -9.5144036502156493e-11 -1.5888114094666262e-10  1.9999999998139950e+02 -1.8677993290109456e-10 -1.3478721028221912e-10  1.9999999998222921e+02 -1.1539985134687610e-10 -8.0844842281826915e-11  1.9999999998234972e+02 -3.1160608434568197e-13 2.6374543395531206e-11  1.9999999998244061e+02 9.6870013020905450e-11 8.4030294774992581e-11  1.9999999998148959e+02 4.9315175612007448e-11 2.5419552841078463e-11  1.9999999998231607e+02 3.9014117210457387e-11 -4.4575129873510025e-11  1.9999999998139310e+02