<?xml version="1.0"?>
<VTKFile type="UnstructuredGrid"  version="0.1"  >
<UnstructuredGrid>
<Piece  NumberOfPoints="3786" NumberOfCells="18490">
<Points>
<DataArray  type="Float64"  NumberOfComponents="3"  format="ascii">25 30 15  25 30 16.25  25 28.75 16.25  23.75 28.75 16.25  25 30 17.5  25 28.75 17.5  37.5 27.5 2.5  37.5 27.5 3.75  37.5 26.25 3.75  36.25 26.25 3.75  37.5 27.5 5  35 27.5 2.5  36.25 27.5 3.75  36.25 27.5 2.5  35 27.5 3.75  35 27.5 5  36.25 27.5 5  38.75 27.5 3.75  38.75 27.5 2.5  38.75 26.25 3.75  40 27.5 2.5  40 27.5 3.75  40 27.5 5  38.75 27.5 5  38.75 26.25 5  36.25 27.5 6.25  36.25 26.25 6.25  37.5 27.5 6.25  37.5 27.5 7.5  35 27.5 6.25  35 27.5 7.5  36.25 27.5 7.5  38.75 27.5 6.25  38.75 26.25 6.25  40 27.5 6.25  40 27.5 7.5  38.75 27.5 7.5  32.5 27.5 7.5  33.75 27.5 8.75  33.75 27.5 7.5  33.75 26.25 8.75  35 27.5 8.75  35 27.5 10  32.5 27.5 10  33.75 27.5 10  33.75 26.25 10  32.5 27.5 8.75  38.75 27.5 8.75  38.75 26.25 8.75  40 27.5 8.75  40 27.5 10  37.5 27.5 8.75  37.5 27.5 10  38.75 27.5 10  30 27.5 10  31.25 27.5 11.25  31.25 27.5 10  31.25 26.25 11.25  32.5 27.5 11.25  32.5 27.5 12.5  30 27.5 12.5  31.25 27.5 12.5  31.25 26.25 12.5  30 27.5 11.25  35 27.5 11.25  35 26.25 11.25  33.75 26.25 11.25  35 27.5 12.5  33.75 27.5 11.25  33.75 27.5 12.5  36.25 27.5 11.25  36.25 27.5 10  36.25 26.25 11.25  37.5 27.5 11.25  37.5 27.5 12.5  36.25 27.5 12.5  40 27.5 12.5  40 26.25 12.5  38.75 26.25 12.5  38.75 26.25 11.25  38.75 27.5 11.25  40 27.5 11.25  38.75 27.5 12.5  32.5 27.5 13.75  32.5 26.25 13.75  31.25 26.25 13.75  32.5 27.5 15  31.25 27.5 13.75  30 27.5 13.75  30 27.5 15  31.25 27.5 15  35 27.5 13.75  35 26.25 13.75  33.75 26.25 13.75  35 27.5 15  35 26.25 15  33.75 26.25 15  33.75 27.5 13.75  33.75 27.5 15  37.5 27.5 13.75  37.5 26.25 13.75  36.25 26.25 13.75  37.5 27.5 15  37.5 25 15  37.5 26.25 15  36.25 26.25 15  36.25 27.5 13.75  36.25 27.5 15  40 27.5 13.75  40 26.25 13.75  38.75 26.25 13.75  40 27.5 15  40 25 15  40 26.25 15  38.75 26.25 15  38.75 25 15  38.75 27.5 13.75  38.75 27.5 15  32.5 27.5 16.25  32.5 26.25 16.25  31.25 26.25 16.25  32.5 27.5 17.5  32.5 25 17.5  32.5 26.25 17.5  31.25 26.25 17.5  31.25 27.5 16.25  30 27.5 17.5  31.25 27.5 17.5  30 27.5 16.25  35 27.5 16.25  35 26.25 16.25  33.75 26.25 16.25  35 27.5 17.5  35 25 17.5  35 26.25 17.5  33.75 26.25 17.5  33.75 25 17.5  33.75 27.5 16.25  33.75 27.5 17.5  37.5 26.25 16.25  36.25 26.25 16.25  37.5 27.5 16.25  37.5 27.5 17.5  37.5 25 16.25  37.5 25 17.5  37.5 26.25 17.5  36.25 26.25 17.5  36.25 27.5 16.25  36.25 27.5 17.5  38.75 26.25 16.25  40 26.25 16.25  40 27.5 16.25  40 27.5 17.5  40 25 16.25  40 25 17.5  40 26.25 17.5  38.75 26.25 17.5  38.75 25 17.5  38.75 27.5 16.25  38.75 27.5 17.5  32.5 26.25 18.75  31.25 26.25 18.75  33.75 26.25 18.75  35 26.25 18.75  35 27.5 18.75  35 27.5 20  35 25 18.75  35 25 20  35 26.25 20  33.75 26.25 20  33.75 27.5 18.75  37.5 26.25 18.75  36.25 26.25 18.75  37.5 27.5 18.75  37.5 27.5 20  37.5 25 18.75  37.5 25 20  37.5 26.25 20  36.25 26.25 20  36.25 25 20  36.25 27.5 18.75  36.25 27.5 20  38.75 26.25 18.75  38.75 27.5 18.75  40 27.5 18.75  40 27.5 20  35 26.25 21.25  33.75 26.25 21.25  36.25 26.25 21.25  42.5 27.5 0  42.5 27.5 1.25  42.5 26.25 1.25  41.25 26.25 1.25  42.5 26.25 0  41.25 26.25 0  42.5 27.5 2.5  42.5 26.25 2.5  41.25 26.25 2.5  40 27.5 0  41.25 27.5 1.25  41.25 27.5 0  41.25 27.5 2.5  40 27.5 1.25  45 25 0  45 26.25 1.25  45 26.25 0  43.75 26.25 1.25  43.75 26.25 0  45 27.5 0  45 27.5 1.25  45 27.5 2.5  45 25 1.25  45 25 2.5  45 26.25 2.5  43.75 26.25 2.5  43.75 27.5 1.25  43.75 27.5 0  43.75 27.5 2.5  47.5 25 0  47.5 26.25 1.25  47.5 26.25 0  46.25 26.25 1.25  46.25 26.25 0  47.5 27.5 0  47.5 27.5 1.25  47.5 27.5 2.5  47.5 25 2.5  47.5 26.25 2.5  46.25 26.25 2.5  46.25 27.5 1.25  46.25 27.5 0  46.25 27.5 2.5  50 27.5 0  50 27.5 1.25  50 26.25 1.25  48.75 26.25 1.25  50 27.5 2.5  50 25 2.5  50 26.25 2.5  48.75 26.25 2.5  48.75 26.25 0  48.75 27.5 1.25  48.75 27.5 0  48.75 27.5 2.5  46.25 28.75 1.25  46.25 28.75 0  47.5 28.75 1.25  47.5 28.75 0  47.5 30 0  47.5 30 1.25  47.5 30 2.5  47.5 28.75 2.5  46.25 28.75 2.5  48.75 28.75 1.25  48.75 28.75 0  50 28.75 1.25  50 28.75 0  50 30 0  50 30 1.25  50 30 2.5  50 28.75 2.5  48.75 28.75 2.5  48.75 30 1.25  48.75 30 0  48.75 30 2.5  40 26.25 3.75  40 26.25 5  42.5 27.5 3.75  42.5 26.25 3.75  41.25 26.25 3.75  42.5 27.5 5  42.5 25 5  42.5 26.25 5  41.25 26.25 5  41.25 27.5 3.75  41.25 27.5 5  45 26.25 3.75  43.75 26.25 3.75  45 27.5 3.75  45 27.5 5  45 25 5  45 26.25 5  43.75 26.25 5  43.75 25 5  43.75 27.5 3.75  43.75 27.5 5  47.5 26.25 3.75  46.25 26.25 3.75  47.5 27.5 3.75  47.5 27.5 5  47.5 25 5  47.5 26.25 5  46.25 26.25 5  46.25 27.5 3.75  46.25 27.5 5  50 26.25 3.75  48.75 26.25 3.75  50 27.5 3.75  50 27.5 5  50 25 3.75  50 25 5  50 26.25 5  48.75 26.25 5  48.75 27.5 3.75  48.75 27.5 5  48.75 28.75 3.75  50 28.75 3.75  50 30 3.75  50 30 5  50 28.75 5  48.75 28.75 5  48.75 30 3.75  40 26.25 6.25  42.5 26.25 6.25  41.25 26.25 6.25  42.5 27.5 6.25  42.5 27.5 7.5  42.5 25 6.25  42.5 25 7.5  42.5 26.25 7.5  41.25 26.25 7.5  41.25 27.5 6.25  41.25 27.5 7.5  43.75 26.25 6.25  45 26.25 6.25  45 27.5 6.25  45 27.5 7.5  45 25 6.25  45 25 7.5  45 26.25 7.5  43.75 26.25 7.5  43.75 25 7.5  43.75 27.5 6.25  43.75 27.5 7.5  47.5 26.25 6.25  46.25 26.25 6.25  47.5 27.5 6.25  47.5 27.5 7.5  47.5 25 7.5  47.5 26.25 7.5  46.25 26.25 7.5  46.25 25 7.5  46.25 27.5 6.25  46.25 27.5 7.5  50 26.25 6.25  48.75 26.25 6.25  50 27.5 6.25  50 27.5 7.5  50 25 7.5  50 26.25 7.5  48.75 26.25 7.5  48.75 25 7.5  48.75 27.5 6.25  48.75 27.5 7.5  46.25 25 8.75  46.25 23.75 8.75  47.5 25 8.75  47.5 25 10  45 25 10  46.25 25 10  46.25 23.75 10  45 25 8.75  42.5 26.25 8.75  41.25 26.25 8.75  42.5 27.5 8.75  42.5 27.5 10  42.5 26.25 10  41.25 26.25 10  41.25 27.5 8.75  41.25 27.5 10  43.75 26.25 8.75  45 26.25 8.75  45 27.5 8.75  45 27.5 10  45 26.25 10  43.75 26.25 10  43.75 27.5 8.75  43.75 27.5 10  46.25 26.25 8.75  47.5 26.25 8.75  47.5 27.5 8.75  47.5 27.5 10  47.5 26.25 10  46.25 26.25 10  46.25 27.5 8.75  46.25 27.5 10  48.75 26.25 8.75  50 26.25 8.75  50 27.5 8.75  50 27.5 10  50 25 10  50 26.25 10  48.75 26.25 10  48.75 25 10  48.75 27.5 8.75  48.75 27.5 10  46.25 25 11.25  46.25 23.75 11.25  47.5 25 11.25  47.5 25 12.5  45 25 11.25  45 25 12.5  46.25 25 12.5  48.75 25 11.25  48.75 23.75 11.25  50 25 11.25  50 25 12.5  48.75 25 12.5  48.75 23.75 12.5  40 26.25 11.25  42.5 27.5 11.25  42.5 26.25 11.25  41.25 26.25 11.25  42.5 27.5 12.5  42.5 25 12.5  42.5 26.25 12.5  41.25 26.25 12.5  41.25 27.5 11.25  41.25 27.5 12.5  45 26.25 11.25  43.75 26.25 11.25  45 27.5 11.25  45 27.5 12.5  45 26.25 12.5  43.75 26.25 12.5  43.75 27.5 11.25  43.75 27.5 12.5  46.25 26.25 11.25  47.5 26.25 11.25  47.5 27.5 11.25  47.5 27.5 12.5  47.5 26.25 12.5  46.25 26.25 12.5  46.25 27.5 11.25  46.25 27.5 12.5  48.75 26.25 11.25  50 26.25 11.25  50 27.5 11.25  50 27.5 12.5  50 26.25 12.5  48.75 26.25 12.5  48.75 27.5 11.25  48.75 27.5 12.5  47.5 25 13.75  47.5 23.75 13.75  46.25 23.75 13.75  47.5 25 15  46.25 25 13.75  45 25 15  46.25 25 15  46.25 23.75 15  45 25 13.75  48.75 25 13.75  48.75 23.75 13.75  50 25 13.75  50 25 15  48.75 25 15  48.75 23.75 15  42.5 26.25 13.75  41.25 26.25 13.75  42.5 27.5 13.75  42.5 27.5 15  42.5 25 15  42.5 26.25 15  41.25 26.25 15  41.25 25 15  41.25 27.5 13.75  41.25 27.5 15  45 26.25 13.75  43.75 26.25 13.75  45 27.5 13.75  45 27.5 15  45 26.25 15  43.75 26.25 15  43.75 25 15  43.75 27.5 13.75  43.75 27.5 15  46.25 26.25 13.75  47.5 26.25 13.75  47.5 27.5 13.75  47.5 27.5 15  47.5 26.25 15  46.25 26.25 15  46.25 27.5 13.75  46.25 27.5 15  48.75 26.25 13.75  50 26.25 13.75  50 27.5 13.75  50 27.5 15  50 26.25 15  48.75 26.25 15  48.75 27.5 13.75  48.75 27.5 15  42.5 25 16.25  42.5 23.75 16.25  41.25 23.75 16.25  42.5 25 17.5  42.5 22.5 17.5  42.5 23.75 17.5  41.25 23.75 17.5  41.25 25 16.25  41.25 25 17.5  45 25 16.25  45 23.75 16.25  43.75 23.75 16.25  45 25 17.5  45 22.5 17.5  45 23.75 17.5  43.75 23.75 17.5  43.75 25 16.25  43.75 25 17.5  47.5 25 16.25  47.5 23.75 16.25  46.25 23.75 16.25  47.5 25 17.5  46.25 25 16.25  46.25 23.75 17.5  46.25 25 17.5  48.75 25 16.25  48.75 23.75 16.25  50 25 16.25  50 25 17.5  48.75 25 17.5  48.75 23.75 17.5  41.25 26.25 16.25  42.5 26.25 16.25  42.5 27.5 16.25  42.5 27.5 17.5  42.5 26.25 17.5  41.25 26.25 17.5  41.25 27.5 16.25  41.25 27.5 17.5  43.75 26.25 16.25  45 26.25 16.25  45 27.5 16.25  45 27.5 17.5  45 26.25 17.5  43.75 26.25 17.5  43.75 27.5 16.25  43.75 27.5 17.5  46.25 26.25 16.25  47.5 26.25 16.25  47.5 27.5 16.25  47.5 27.5 17.5  47.5 26.25 17.5  46.25 26.25 17.5  46.25 27.5 16.25  46.25 27.5 17.5  48.75 26.25 16.25  50 26.25 16.25  50 27.5 16.25  50 27.5 17.5  50 26.25 17.5  48.75 26.25 17.5  48.75 27.5 16.25  48.75 27.5 17.5  42.5 23.75 18.75  41.25 23.75 18.75  42.5 25 18.75  42.5 25 20  42.5 22.5 18.75  42.5 22.5 20  42.5 23.75 20  41.25 25 18.75  45 23.75 18.75  43.75 23.75 18.75  45 25 18.75  45 25 20  45 22.5 20  45 23.75 20  43.75 23.75 20  43.75 25 18.75  43.75 25 20  47.5 25 18.75  47.5 23.75 18.75  46.25 23.75 18.75  47.5 25 20  47.5 22.5 20  47.5 23.75 20  46.25 23.75 20  46.25 25 18.75  46.25 25 20  50 25 18.75  50 23.75 18.75  48.75 23.75 18.75  50 25 20  48.75 25 18.75  48.75 25 20  41.25 26.25 18.75  42.5 26.25 18.75  42.5 27.5 18.75  42.5 27.5 20  42.5 26.25 20  41.25 27.5 18.75  43.75 26.25 18.75  45 26.25 18.75  45 27.5 18.75  45 27.5 20  45 26.25 20  43.75 26.25 20  43.75 27.5 18.75  43.75 27.5 20  46.25 26.25 18.75  47.5 26.25 18.75  47.5 27.5 18.75  47.5 27.5 20  47.5 26.25 20  46.25 26.25 20  46.25 27.5 18.75  46.25 27.5 20  48.75 26.25 18.75  50 26.25 18.75  50 27.5 18.75  50 27.5 20  50 26.25 20  48.75 26.25 20  48.75 27.5 18.75  48.75 27.5 20  45 23.75 21.25  43.75 23.75 21.25  46.25 23.75 21.25  43.75 26.25 21.25  43.75 27.5 21.25  46.25 26.25 21.25  47.5 26.25 21.25  47.5 27.5 21.25  46.25 27.5 21.25  48.75 26.25 21.25  50 26.25 21.25  50 27.5 21.25  50 27.
[...]
<PointData  Vectors="u"> 
<DataArray  type="Float64"  Name="u"  NumberOfComponents="3" format="ascii">1.9999999998250581e+02 4.8213113913351075e-11 8.0487752928970052e-11  1.9999999998229200e+02 -9.3903761049035848e-12 5.9241287751138628e-12  1.9999999998231624e+02 -1.1725248452599089e-10 -1.0015200037869091e-10  1.9999999998311321e+02 -1.0322803560050497e-10 -8.9094298777369320e-11  1.9999999998248202e+02 8.7085451440166699e-11 1.0430514150335834e-10  1.9999999998228020e+02 -2.2418840377030579e-11 -3.7732394131642167e-13  1.9999999997432650e+02 1.3312868568396299e-10 1.7054917302543152e-10  1.9999999997425169e+02 -6.6591848211474727e-11 -1.5728798233819478e-11  1.9999999997410319e+02 -8.0355618347763853e-11 -1.1473431988747332e-10  1.9999999997492358e+02 -8.5508634647194768e-11 -8.5958219646708472e-11  1.9999999997432514e+02 1.3228116487183522e-10 1.1106651026060973e-10  1.9999999997594088e+02 1.0441171668958699e-10 1.4944144844550507e-10  1.9999999997496801e+02 -1.1652418400880838e-10 -6.9617465204952742e-11  1.9999999997504068e+02 -7.1639509185311933e-11 3.9363170784321892e-11  1.9999999997582387e+02 -1.0844240647557496e-10 3.9880957833620229e-12  1.9999999997593167e+02 1.0089466290307847e-10 8.3306815857186471e-11  1.9999999997506833e+02 -5.4234991791076701e-11 1.5862446746014488e-11  1.9999999997333987e+02 -1.2407431651645913e-10 -9.7004894224884878e-11  1.9999999997341871e+02 -6.7047679659976458e-11 9.3026985475869328e-11  1.9999999997338136e+02 -8.9682662832798186e-12 -6.5794469594962672e-11  1.9999999997278300e+02 8.9444010529902839e-11 1.6850567722774733e-10  1.9999999997260360e+02 2.5970872789873466e-11 4.8868466147785020e-11  1.9999999997278925e+02 9.2263797288414384e-11 8.7730431924389702e-11  1.9999999997340734e+02 -8.4676160980318374e-11 3.0631333068027019e-11  1.9999999997336943e+02 -6.7008584411779504e-12 -2.0743249992471356e-10  1.9999999997494243e+02 -1.4031884207640430e-10 -9.0568770697152697e-11  1.9999999997494797e+02 -7.6462205467639128e-11 -6.1767322262758874e-11  1.9999999997428830e+02 -6.7944009357962909e-11 2.0390215356211519e-11  1.9999999997431746e+02 1.2316401114583159e-10 1.1915469512420564e-10  1.9999999997587679e+02 -3.7180797086900793e-11 3.0241862404648406e-11  1.9999999997593994e+02 1.2795177708936399e-10 1.1100244388867234e-10  1.9999999997507462e+02 -4.9491068647210970e-11 6.4997853812823203e-11  1.9999999997330758e+02 -1.5704899613454714e-10 -1.0508676377786336e-10  1.9999999997337730e+02 -3.2534942863170853e-11 -4.5023080418959249e-11  1.9999999997262586e+02 -8.8263596181122267e-12 1.4607447900253013e-11  1.9999999997276620e+02 9.7042182210457858e-11 1.0828270790528003e-10  1.9999999997339711e+02 -7.7430097145460314e-11 4.2814875537802553e-11  1.9999999997751041e+02 9.9264926227133148e-11 1.1618517795565062e-10  1.9999999997651611e+02 -1.2098511352255802e-10 -9.1234965514892112e-11  1.9999999997661118e+02 -6.4641162518627595e-11 4.1038114043799994e-11  1.9999999997652543e+02 -6.3148589772418286e-11 -7.4240560621796908e-11  1.9999999997585596e+02 -5.8357392812302231e-11 5.0770681234203088e-12  1.9999999997592445e+02 1.2818764887320994e-10 1.1141748629418528e-10  1.9999999997752579e+02 1.0622174998554060e-10 1.1033531409473910e-10  1.9999999997663278e+02 -7.0063024167319499e-11 2.4287063220345443e-11  1.9999999997651497e+02 -6.0042981096758278e-11 -2.2633776671574745e-10  1.9999999997745473e+02 -8.0986639300555224e-11 -3.9607946108712047e-11  1.9999999997331702e+02 -1.1788728905616789e-10 -1.1403172790999001e-10  1.9999999997340188e+02 -2.7544115075255732e-11 -4.4313784984289825e-11  1.9999999997262768e+02 2.5902199537787416e-11 7.7714593245872556e-12  1.9999999997277507e+02 8.2149973433029838e-11 1.1898160076982479e-10  1.9999999997425064e+02 -5.6621343283307338e-11 -6.1316180993946214e-11  1.9999999997432477e+02 1.3058343479952472e-10 1.0856890120845099e-10  1.9999999997342849e+02 -9.0577310019325870e-11 5.8335583119080008e-11  1.9999999997914225e+02 8.3546516635590077e-11 9.1496111663413655e-11  1.9999999997812714e+02 -9.3428317273920109e-11 -8.4879278623712540e-11  1.9999999997825412e+02 -8.6935616986653734e-11 -3.0649441361548063e-11  1.9999999997815442e+02 -8.9285069620878614e-11 -7.5110272853747781e-11  1.9999999997747125e+02 -4.1351097385799827e-11 1.1498295985042516e-12  1.9999999997751732e+02 1.1247206219341265e-10 7.3272636910152792e-11  1.9999999997914310e+02 1.0437689229812139e-10 1.1162506157685777e-10  1.9999999997822499e+02 -3.4245772894204854e-11 2.4972537150341343e-11  1.9999999997811355e+02 -9.0064815992587620e-11 -1.4543126196447968e-10  1.9999999997905059e+02 -7.6996163833895194e-11 9.1418207187938629e-12  1.9999999997584951e+02 -3.0560919074281571e-11 1.2989888152107400e-11  1.9999999997569577e+02 -9.0533453262737965e-11 -9.3078980307368150e-11  1.9999999997651517e+02 -7.2776121501292166e-11 -3.7364764154192274e-11  1.9999999997591382e+02 8.9080587796029883e-11 7.3488821043690770e-11  1.9999999997652338e+02 -1.3536946990124499e-10 -1.0257542665157895e-10  1.9999999997663826e+02 -9.6090755002885843e-11 -3.0718221743132339e-12  1.9999999997492054e+02 -1.0749844288780911e-10 -7.2221335207766508e-11  1.9999999997502496e+02 -3.4374052262242905e-11 1.8960404231256185e-11  1.9999999997495399e+02 -7.1978702831269295e-11 -8.2292522120221903e-11  1.9999999997426451e+02 -5.2856745462595763e-11 7.2655154727751060e-12  1.9999999997431939e+02 9.5202172062858804e-11 1.1919052597414105e-10  1.9999999997506077e+02 -9.0335509234007244e-11 3.2572741658243683e-11  1.9999999997277214e+02 1.2260103602799949e-10 4.8890648373521320e-11  1.9999999997258180e+02 -4.6820890932211040e-11 4.8276651556241564e-11  1.9999999997332932e+02 -6.6776937946435019e-11 -1.5904461211332987e-10  1.9999999997341268e+02 -6.5389720299638693e-11 -8.7628810466388130e-11  1.9999999997338412e+02 -1.4421191210128607e-10 -8.7663302669176389e-11  1.9999999997257760e+02 -1.3073334855444602e-11 3.3698013259714802e-11  1.9999999997342036e+02 -4.7514738355688323e-11 1.5039417965535475e-11  1.9999999997743348e+02 -8.3001742900359790e-11 -1.1057058352815138e-11  1.9999999997726101e+02 -1.0953430870532980e-10 -8.9412961609415727e-11  1.9999999997814871e+02 -7.5578444463488703e-11 -6.3038332667316666e-11  1.9999999997751164e+02 8.2177895197304019e-11 8.6383672486239773e-11  1.9999999997812048e+02 -1.3570775987956544e-10 -7.9649467280108081e-11  1.9999999997905482e+02 -7.9600503000238242e-11 -1.6355248537797258e-11  1.9999999997913292e+02 1.1137173235527378e-10 1.2853782682481247e-10  1.9999999997820098e+02 -9.5183883708951313e-11 1.3404491239905845e-11  1.9999999997585297e+02 -1.9023492130216810e-11 -6.4933900199102653e-12  1.9999999997571121e+02 -1.2893683712314370e-10 -1.0875737417030124e-10  1.9999999997654189e+02 -9.2844512811403441e-11 -1.0140352053983948e-10  1.9999999997592985e+02 1.0684498302907460e-10 1.1023543550451836e-10  1.9999999997587562e+02 -1.1845188602845834e-11 1.1889247108226179e-11  1.9999999997651241e+02 -8.5192279721311184e-11 -1.6350035537759759e-10  1.9999999997652472e+02 -1.1793223474563703e-10 -1.2127427992004203e-10  1.9999999997662704e+02 -5.9639647823509827e-11 5.2159609966432550e-11  1.9999999997425923e+02 -9.9325502654310174e-11 -3.6248215755298140e-11  1.9999999997403634e+02 -5.6819248818532746e-11 -8.2634132651024679e-11  1.9999999997497645e+02 -8.0366120540020442e-11 -1.0771440006675658e-10  1.9999999997434244e+02 8.2869003657283486e-11 9.5086283832850442e-11  1.9999999997434813e+02 1.1627498738199608e-10 9.8410622874082280e-11  1.9999999997424439e+02 -3.7076732160985338e-11 1.7395367655930493e-11  1.9999999997495740e+02 -1.2256927411027414e-10 -1.5122072187014160e-10  1.9999999997495567e+02 -1.5998513947247665e-10 -1.2496622329717110e-10  1.9999999997502070e+02 -7.0799571216870273e-11 1.8187848825959218e-11  1.9999999997259570e+02 -3.6006629863255212e-11 2.8201338115269690e-11  1.9999999997253613e+02 -9.4109891203840238e-11 -8.6801875597145655e-11  1.9999999997335510e+02 -5.1851048148952498e-11 -4.7548022965413726e-11  1.9999999997273167e+02 9.3115606781700097e-11 8.1119162387862114e-11  1.9999999997276694e+02 9.2339133110447984e-11 1.0322497627524600e-10  1.9999999997256901e+02 -2.4189645352886146e-11 3.6996714176228488e-11  1.9999999997335013e+02 -8.0938121850001958e-11 -1.7508024640514418e-10  1.9999999997341067e+02 2.4112381857222594e-11 1.4045585306380728e-11  1.9999999997333754e+02 -1.5146604995919924e-10 -6.8592755394361536e-11  1.9999999997343625e+02 -9.6835301576076787e-11 -7.2097117094840354e-12  1.9999999997743350e+02 -6.5423132015060404e-11 3.2293705984165262e-11  1.9999999997724564e+02 -1.2802843163007829e-10 -1.0717343017092993e-10  1.9999999997813563e+02 -8.4166720597850073e-11 -1.0533135461976620e-10  1.9999999997751181e+02 8.5532075406194488e-11 1.0129818676765357e-10  1.9999999997749933e+02 8.0509148279050260e-11 8.7223788303798106e-11  1.9999999997740790e+02 -8.9853048728115217e-12 4.6408498306768102e-11  1.9999999997816639e+02 -1.0892682859043297e-10 -1.4758258712210830e-10  1.9999999997810588e+02 -1.2014736010575767e-10 -9.8724081572199416e-11  1.9999999997913619e+02 7.2534447788048399e-11 8.6991195231525087e-11  1.9999999997820814e+02 -3.2947495451743341e-11 -2.3322969023732947e-11  1.9999999997902901e+02 -5.4839157213621810e-11 -2.9895775049998918e-11  1.9999999997585641e+02 -5.3935688589040945e-11 -2.0024177857755360e-11  1.9999999997561088e+02 -1.2539835366111281e-10 -7.6474586500770276e-11  1.9999999997657034e+02 -8.0511718003091961e-11 -6.0424017475165497e-11  1.9999999997593594e+02 8.4740805818150413e-11 1.0042697493023330e-10  1.9999999997592670e+02 1.2205078249775899e-10 7.3405548887309932e-11  1.9999999997581838e+02 -7.8239446885636842e-11 1.4603367360814909e-11  1.9999999997654848e+02 -1.0343211911434428e-10 -1.9469101404560229e-10  1.9999999997664381e+02 1.1273101272460529e-11 -2.8479948004326779e-11  1.9999999997654845e+02 -1.3600221683068433e-10 -1.2379904632495809e-10  1.9999999997659768e+02 -1.0446875937718339e-10 3.4039686190511230e-11  1.9999999997404007e+02 -9.1863420148816090e-11 -1.2037229286127464e-10  1.9999999997498213e+02 -6.7436510348132186e-11 -8.7395853739313785e-11  1.9999999997422938e+02 -1.0366045626509730e-10 -5.7370168935340660e-11  1.9999999997430561e+02 1.0196234189969380e-10 1.0538681435536068e-10  1.9999999997423271e+02 3.1019136420393323e-11 -2.6973480659639371e-11  1.9999999997433582e+02 9.6194042764109176e-11 8.8059980483540310e-11  1.9999999997427508e+02 -2.2790738300229251e-11 -3.4680048826315787e-11  1.9999999997489928e+02 -1.0854325323619630e-10 -2.1815972180216888e-10  1.9999999997492984e+02 -1.1529156388889502e-10 -8.6149600364469048e-11  1.9999999997502667e+02 -1.5463017851710002e-11 1.6989305328017325e-11  1.9999999997334839e+02 -7.3505562320587725e-11 -1.0665263162545304e-10  1.9999999997255605e+02 -8.8100382950284228e-11 -1.4709411025013537e-10  1.9999999997259985e+02 -6.3573707148483464e-11 -1.1034216171620912e-11  1.9999999997276674e+02 9.4420912389310906e-11 7.5207016209877475e-11  1.9999999997261955e+02 1.1993571113754145e-11 -3.0768338991389210e-11  1.9999999997278769e+02 7.1237276826941346e-11 7.8666334280104941e-11  1.9999999997260522e+02 2.1206761279503881e-11 2.2552773721323638e-11  1.9999999997332455e+02 -8.2643816632626845e-11 -1.5586542036571696e-10  1.9999999997339961e+02 1.0701270780174016e-11 -1.2392167373635849e-11  1.9999999997336792e+02 -9.5084582336664724e-11 -1.3981245705187826e-10  1.9999999997342232e+02 -1.1445133568806577e-10 1.2128508239689298e-11  1.9999999997725834e+02 -8.5639400345122076e-11 -1.4080053527540265e-10  1.9999999997818435e+02 -8.1679338909267058e-11 -9.6506087230174400e-11  1.9999999997654399e+02 -6.3383266912593476e-11 -8.1230741603286041e-11  1.9999999997567355e+02 -6.6486123943485566e-11 -1.3350935182778438e-10  1.9999999997585093e+02 -6.4637606279498277e-11 1.2087115294990272e-11  1.9999999997590632e+02 1.2569159539875286e-10 8.8281307682875183e-11  1.9999999997582179e+02 9.7702027487936957e-12 -5.5798838585048587e-11  1.9999999997588461e+02 1.0075671742942221e-10 1.2902439130320168e-10  1.9999999997580252e+02 -1.2107286709468332e-11 -4.4965745525580495e-12  1.9999999997654982e+02 -1.3913573551011484e-10 -1.6002612506275072e-10  1.9999999997652858e+02 -1.0690283126944639e-10 -1.2471003902288135e-10  1.9999999997406434e+02 -8.7019249429955984e-11 -1.0788111744038137e-10  1.9999999997493038e+02 -5.1772891830886829e-11 -9.7823219165074472e-11  1.9999999997420539e+02 -5.7737769795120181e-11 -1.6972364679391020e-11  1.9999999997432880e+02 1.1755636981382844e-10 6.3742025181817676e-11  1.9999999997425297e+02 -2.0139364782333057e-11 -3.8015495392202439e-11  1.9999999997435290e+02 9.4842655214201308e-11 1.0869711208939001e-10  1.9999999997428247e+02 -2.9677012392966724e-11 1.8478409339648906e-11  1.9999999997492463e+02 -8.4694822983951913e-11 -1.4162457149500549e-10  1.9999999997503869e+02 3.5367802805123784e-12 -1.0991540427989774e-11  1.9999999997492998e+02 -4.9082664785787777e-11 -9.6692860833962099e-11  1.9999999997501152e+02 -2.5392855845962307e-11 -1.6392359048243137e-11  1.9999999997337059e+02 -6.8833170025087423e-11 -7.9787987053902977e-11  1.9999999997333751e+02 -1.0951690037112698e-10 -8.7973706066569222e-11  1.9999999997257484e+02 -6.9047756083364251e-11 -4.2510839751885066e-11  1.9999999997272107e+02 9.4726295698762857e-11 9.2665593949606236e-11  1.9999999997566769e+02 -8.6184578980991564e-11 -1.0442046418447718e-10  1.9999999997655942e+02 -8.7520441420816648e-11 -1.0162719830923537e-10  1.9999999997493737e+02 -7.5440519597788018e-11 -7.5434075555332123e-11  1.9999999997122509e+02 1.0874386240815869e-10 5.9917203749491360e-10  1.9999999997112585e+02 -9.1419962741424999e-11 -1.8276417917349300e-11  1.9999999997098405e+02 -1.2953438334662644e-10 -1.9674236074794090e-10  1.9999999997180547e+02 -4.3057573226863213e-11 -1.5428228496765365e-10  1.9999999997107656e+02 -7.7616996678702517e-11 4.5113737146494021e-11  1.9999999997170249e+02 -2.0948173465500789e-10 -4.3595228632595374e-10  1.9999999997121679e+02 1.0209666959730584e-10 1.6507267613814262e-10  1.9999999997113969e+02 -4.1048922702135766e-11 2.8262791684042921e-11  1.9999999997179052e+02 -6.6923867828227916e-11 -2.1081933348887248e-10  1.9999999997282728e+02 1.0561254713813827e-10 6.5411585489657198e-10  1.9999999997175900e+02 -1.2645407369628487e-10 -1.7283576530895467e-10  1.9999999997184162e+02 -7.9207402703305524e-11 -2.1426511473703796e-11  1.9999999997185532e+02 -9.2944500708559285e-11 4.3044079710454109e-11  1.9999999997265942e+02 3.7466430195924509e-11 -8.2901746027271543e-11  1.9999999996970047e+02 7.9717593770428045e-11 6.0945547204861677e-10  1.9999999996948586e+02 -1.2851499572016696e-10 -1.7222150410633323e-10  1.9999999996954475e+02 -4.3550114309060457e-11 2.3626836394260985e-11  1.9999999997027919e+02 -1.0823166886586249e-10 -1.5517248988537931e-10  1.9999999997016619e+02 -2.3435969213947072e-10 -3.7138169626916872e-10  1.9999999996969180e+02 8.4143488921124203e-11 5.9816393268023658e-10  1.9999999996958562e+02 -1.1762045811956345e-10 -8.4858497748736254e-11  1.9999999996968839e+02 8.9314506298705792e-11 1.5712487496070471e-10  1.9999999996959301e+02 -3.3114312556022120e-11 -1.9661277119502328e-11  1.9999999996969146e+02 9.3888982792588894e-11 1.2228971548921547e-10  1.9999999996961549e+02 -8.1986669611074988e-11 2.5371848689317107e-11  1.9999999997025361e+02 -1.3238535068951029e-10 -1.6790360318264898e-10  1.9999999997024423e+02 -1.4324385091173969e-10 -1.9865881076647960e-10  1.9999999997033780e+02 -6.0139527633768315e-11 4.0137056851071692e-11  1.9999999997027140e+02 -7.3959779124013144e-11 6.5155632708116555e-11  1.9999999996819417e+02 5.9470992074660605e-11 6.2532726568317236e-10  1.9999999996798368e+02 -1.2954257275366252e-10 -1.7401910170486164e-10  1.9999999996803837e+02 -6.0645891531853125e-11 8.2291494191432765e-12  1.9999999996878250e+02 -1.3180403011612992e-10 -1.4448789874684429e-10  1.9999999996870707e+02 -2.0125883889133628e-10 -4.4317714195186050e-10  1.9999999996816896e+02 8.7928129321728577e-11 6.1558968108098657e-10  1.9999999996812045e+02 -2.7658231847929661e-11 -1.0457913325741419e-10  1.9999999996816084e+02 7.0694173325483346e-11 1.4906086720831480e-10  1.9999999996815308e+02 6.7005075276776485e-11 1.0508886911884542e-10  1.9999999996809538e+02 -7.6630556489306499e-11 4.2662589241894358e-11  1.9999999996878338e+02 -1.4117716513092497e-10 -1.4974443964491056e-10  1.9999999996879615e+02 -2.0287755340559225e-10 -1.8870507765721775e-10  1.9999999996885737e+02 -1.0599526615383802e-10 6.0732506607624033e-11  1.9999999996887783e+02 -2.6467464822784231e-11 6.4500785484600509e-11  1.9999999996663053e+02 4.2378260157719636e-11 2.9328516852756316e-10  1.9999999996644624e+02 -1.9033392510350677e-11 -3.1992559443152063e-11  1.9999999996637774e+02 -3.9368617378870531e-12 -1.1340266972473740e-11  1.9999999996734181e+02 -1.0977458201234330e-10 -1.3331678645188629e-10  1.9999999996662308e+02 3.0889837982026392e-11 6.0329902945863823e-11  1.9999999996661816e+02 3.5007796170258525e-11 4.7615908544286642e-11  1.9999999996639909e+02 -1.5098830498098614e-11 1.1585757353295084e-11  1.9999999996731719e+02 -1.0670503288645848e-10 -1.6666029443551478e-10  1.9999999996726629e+02 -1.9788641893243083e-10 -3.6650031267062919e-10  1.9999999996734206e+02 -2.0771683293200028e-10 -1.6432501906987452e-10  1.9999999996743929e+02 -8.7120299340501535e-11 3.3773726715102165e-11  1.9999999996735573e+02 -1.9672507430134634e-11 3.0028786613821027e-11  1.9999999996883707e+02 -9.2542106101162171e-11 -1.4085769894109452e-10  1.9999999996887144e+02 -2.1158456818386453e-10 -4.3360420447152656e-10  1.9999999996797243e+02 -1.3148479509841462e-10 -1.8181927441528223e-10  1.9999999996801452e+02 -5.3665034047665582e-11 -4.5036878717391816e-13  1.9999999996820696e+02 1.0055653387929658e-10 6.3218231875423258e-10  1.9999999996818246e+02 -8.0814563934858985e-11 -8.7209883972622984e-11  1.9999999996817877e+02 8.2437324560568871e-11 1.3983750487282249e-10  1.9999999996808504e+02 -4.8381377508681114e-11 -8.2934595142618149e-12  1.9999999996882119e+02 -1.4174924021075283e-10 -1.3817435792110656e-10  1.9999999996732291e+02 -8.4807127890394458e-11 -1.2769783026608496e-10  1.9999999996728923e+02 -1.7173100002979271e-10 -4.1006004116613054e-10  1.9999999996646221e+02 1.5403503317570169e-11 -1.4726497865501106e-11  1.9999999996648120e+02 -4.3649359030833652e-11 -1.2413129709427621e-10  1.9999999996660509e+02 5.8565189687155743e-11 3.0118897602182128e-10  1.9999999996646531e+02 -1.4000719495099028e-10 -1.9288173051558453e-11  1.9999999996657971e+02 4.0529774791123428e-11 5.5292434164278638e-11  1.9999999996639707e+02 -3.2963848226067763e-11 1.7970996420997783e-11  1.9999999996734519e+02 -1.0111484626282004e-10 -1.2791483046413948e-10  1.9999999996734743e+02 -1.2634544054333156e-10 -1.8220361806625415e-10  1.9999999996737662e+02 -6.2050001935282936e-11 2.8368595609958994e-11  1.9999999996738580e+02 -5.9908386853431114e-11 1.4463450404375049e-11  1.9999999997260994e+02 -8.1466734770370571e-12 -8.3526036850689157e-11  1.9999999997270316e+02 -9.9534837313455616e-12 2.3341755679237982e-11  1.9999999997111755e+02 -5.5125206791786659e-11 -4.6303130272708951e-11  1.9999999997098053e+02 -1.0982555835233801e-10 -7.7419127154342644e-11  1.9999999997179830e+02 -2.1835979262739340e-11 -4.8655634559176934e-11  1.9999999997119494e+02 1.0457398967514683e-10 1.1240375081771168e-10  1.9999999997123413e+02 9.7161428450530448e-11 1.2969540885677216e-10  1.9999999997112886e+02 -3.3643319539878707e-11 5.3259919689870843e-12  1.9999999997177505e+02 -1.0144966604854914e-10 -1.3302919262455779e-10  1.9999999997178998e+02 -1.1257630135242237e-10 -7.3098741233502749e-11  1.9999999997183812e+02 -1.0426258744114282e-10 1.8731298470393128e-11  1.9999999996945050e+02 -1.2761218090900059e-10 -8.6393125428517672e-11  1.9999999997027331e+02 -9.6909761190188070e-11 -6.8425664981484520e-11  1.9999999996960298e+02 -4.3779471714192634e-11 2.3231426745458017e-11  1.99999999969