<?xml version="1.0"?>
<VTKFile type="UnstructuredGrid"  version="0.1"  >
<UnstructuredGrid>
<Piece  NumberOfPoints="3975" NumberOfCells="19749">
<Points>
<DataArray  type="Float64"  NumberOfComponents="3"  format="ascii">25 0 25  25 1.25 25  23.75 1.25 25  23.75 1.25 23.75  23.75 0 25  23.75 0 23.75  25 2.5 25  22.5 2.5 25  23.75 2.5 25  22.5 2.5 22.5  23.75 2.5 23.75  22.5 2.5 23.75  23.75 3.75 23.75  23.75 3.75 25  25 3.75 25  25 5 25  22.5 3.75 25  22.5 5 25  23.75 5 25  22.5 5 22.5  23.75 5 23.75  22.5 5 23.75  23.75 6.25 23.75  23.75 6.25 25  25 6.25 25  25 7.5 25  22.5 6.25 23.75  22.5 6.25 25  22.5 7.5 25  23.75 7.5 25  25 1.25 26.25  23.75 1.25 26.25  25 2.5 26.25  25 2.5 27.5  25 0 26.25  23.75 0 26.25  23.75 2.5 26.25  23.75 2.5 27.5  23.75 3.75 26.25  25 3.75 26.25  25 5 26.25  25 5 27.5  23.75 5 26.25  23.75 5 27.5  23.75 6.25 26.25  25 6.25 26.25  25 7.5 26.25  23.75 7.5 26.25  23.75 8.75 26.25  23.75 8.75 25  25 8.75 26.25  25 8.75 25  25 10 25  25 10 26.25  25 10 27.5  22.5 8.75 25  22.5 10 25  23.75 10 26.25  23.75 10 25  23.75 11.25 26.25  23.75 11.25 25  25 11.25 26.25  25 11.25 25  25 12.5 25  25 12.5 26.25  25 12.5 27.5  25 11.25 27.5  22.5 12.5 25  23.75 12.5 26.25  23.75 12.5 25  23.75 13.75 26.25  23.75 13.75 25  25 13.75 26.25  25 13.75 25  25 15 25  25 15 26.25  25 15 27.5  25 13.75 27.5  23.75 15 26.25  23.75 15 25  25 16.25 26.25  25 16.25 25  23.75 16.25 26.25  23.75 16.25 25  25 17.5 25  20 0 0  21.25 1.25 1.25  21.25 1.25 0  21.25 0 0  22.5 0 0  22.5 1.25 1.25  22.5 1.25 0  22.5 2.5 0  22.5 2.5 1.25  22.5 2.5 2.5  21.25 0 1.25  22.5 0 1.25  22.5 0 2.5  22.5 1.25 2.5  21.25 1.25 2.5  21.25 0 2.5  20 2.5 0  21.25 2.5 1.25  21.25 2.5 0  21.25 2.5 2.5  21.25 3.75 1.25  21.25 3.75 0  22.5 3.75 1.25  22.5 3.75 0  22.5 5 0  22.5 5 1.25  22.5 5 2.5  22.5 3.75 2.5  21.25 3.75 2.5  20 3.75 0  20 5 0  21.25 5 1.25  21.25 5 0  21.25 6.25 1.25  21.25 6.25 0  22.5 6.25 1.25  22.5 6.25 0  22.5 7.5 0  22.5 7.5 1.25  22.5 7.5 2.5  22.5 6.25 2.5  22.5 8.75 1.25  22.5 8.75 0  21.25 8.75 1.25  22.5 10 0  22.5 10 1.25  22.5 10 2.5  22.5 8.75 2.5  21.25 8.75 2.5  22.5 11.25 1.25  22.5 11.25 0  21.25 11.25 1.25  22.5 12.5 0  22.5 12.5 1.25  22.5 12.5 2.5  22.5 11.25 2.5  22.5 1.25 3.75  21.25 1.25 3.75  22.5 2.5 3.75  22.5 2.5 5  22.5 0 3.75  21.25 0 3.75  22.5 0 5  22.5 1.25 5  21.25 1.25 5  21.25 2.5 3.75  22.5 3.75 3.75  21.25 3.75 3.75  22.5 5 3.75  22.5 5 5  22.5 3.75 5  21.25 3.75 5  21.25 5 3.75  20 5 5  21.25 5 5  22.5 6.25 3.75  21.25 6.25 3.75  22.5 7.5 3.75  22.5 7.5 5  22.5 6.25 5  21.25 6.25 5  21.25 7.5 3.75  22.5 8.75 3.75  21.25 8.75 3.75  22.5 10 3.75  22.5 10 5  22.5 8.75 5  21.25 8.75 5  21.25 10 3.75  21.25 10 5  22.5 11.25 3.75  21.25 11.25 3.75  22.5 12.5 3.75  22.5 12.5 5  22.5 11.25 5  21.25 11.25 5  21.25 12.5 3.75  22.5 13.75 3.75  22.5 13.75 2.5  21.25 13.75 3.75  22.5 15 2.5  22.5 15 3.75  22.5 15 5  22.5 13.75 5  21.25 13.75 5  22.5 1.25 6.25  21.25 1.25 6.25  22.5 2.5 6.25  22.5 2.5 7.5  22.5 0 6.25  22.5 0 7.5  22.5 1.25 7.5  21.25 1.25 7.5  21.25 2.5 6.25  20 2.5 7.5  21.25 2.5 7.5  22.5 3.75 6.25  21.25 3.75 6.25  22.5 5 6.25  22.5 5 7.5  22.5 3.75 7.5  21.25 3.75 7.5  21.25 5 6.25  20 5 7.5  21.25 5 7.5  21.25 6.25 6.25  22.5 6.25 6.25  22.5 7.5 6.25  22.5 7.5 7.5  22.5 6.25 7.5  21.25 6.25 7.5  21.25 7.5 6.25  20 6.25 7.5  20 7.5 7.5  21.25 7.5 7.5  22.5 8.75 6.25  21.25 8.75 6.25  22.5 10 6.25  22.5 10 7.5  22.5 8.75 7.5  21.25 8.75 7.5  21.25 10 6.25  22.5 11.25 6.25  21.25 11.25 6.25  22.5 12.5 6.25  22.5 12.5 7.5  22.5 11.25 7.5  21.25 11.25 7.5  21.25 12.5 6.25  21.25 12.5 7.5  22.5 13.75 6.25  21.25 13.75 6.25  22.5 15 6.25  22.5 15 7.5  22.5 13.75 7.5  21.25 13.75 7.5  22.5 1.25 8.75  21.25 1.25 8.75  22.5 2.5 8.75  22.5 2.5 10  22.5 0 8.75  22.5 0 10  22.5 1.25 10  21.25 1.25 10  21.25 2.5 8.75  21.25 2.5 10  21.25 3.75 8.75  22.5 3.75 8.75  22.5 5 8.75  22.5 5 10  22.5 3.75 10  21.25 3.75 10  21.25 5 8.75  20 5 10  21.25 5 10  20 5 8.75  21.25 6.25 8.75  22.5 6.25 8.75  22.5 7.5 8.75  22.5 7.5 10  22.5 6.25 10  21.25 6.25 10  21.25 7.5 8.75  20 7.5 10  21.25 7.5 10  21.25 8.75 8.75  22.5 8.75 8.75  22.5 10 8.75  22.5 10 10  22.5 8.75 10  21.25 8.75 10  21.25 10 8.75  21.25 10 10  22.5 11.25 8.75  21.25 11.25 8.75  22.5 12.5 8.75  22.5 12.5 10  22.5 11.25 10  21.25 11.25 10  21.25 12.5 8.75  21.25 12.5 10  22.5 13.75 8.75  21.25 13.75 8.75  22.5 15 8.75  22.5 15 10  22.5 13.75 10  21.25 13.75 10  21.25 15 8.75  21.25 15 10  21.25 16.25 8.75  21.25 16.25 10  22.5 1.25 11.25  21.25 1.25 11.25  22.5 2.5 11.25  22.5 2.5 12.5  22.5 0 11.25  21.25 0 11.25  22.5 0 12.5  22.5 1.25 12.5  21.25 1.25 12.5  21.25 2.5 11.25  20 2.5 12.5  21.25 2.5 12.5  22.5 3.75 11.25  21.25 3.75 11.25  22.5 5 11.25  22.5 5 12.5  22.5 3.75 12.5  21.25 3.75 12.5  21.25 5 11.25  20 5 12.5  21.25 5 12.5  21.25 6.25 11.25  22.5 6.25 11.25  22.5 7.5 11.25  22.5 7.5 12.5  22.5 6.25 12.5  21.25 6.25 12.5  21.25 7.5 11.25  21.25 7.5 12.5  21.25 8.75 11.25  22.5 8.75 11.25  22.5 10 11.25  22.5 10 12.5  22.5 8.75 12.5  21.25 8.75 12.5  21.25 10 11.25  22.5 11.25 11.25  21.25 11.25 11.25  22.5 12.5 11.25  22.5 12.5 12.5  22.5 11.25 12.5  21.25 11.25 12.5  21.25 12.5 11.25  21.25 12.5 12.5  22.5 13.75 11.25  21.25 13.75 11.25  22.5 15 11.25  22.5 15 12.5  22.5 13.75 12.5  21.25 13.75 12.5  21.25 15 11.25  21.25 15 12.5  21.25 16.25 11.25  22.5 16.25 11.25  22.5 16.25 12.5  22.5 17.5 12.5  21.25 16.25 12.5  22.5 1.25 13.75  21.25 1.25 13.75  22.5 2.5 13.75  22.5 2.5 15  22.5 0 13.75  22.5 0 15  22.5 1.25 15  21.25 1.25 15  21.25 2.5 13.75  21.25 3.75 13.75  22.5 3.75 13.75  22.5 5 13.75  22.5 5 15  22.5 3.75 15  21.25 5 13.75  21.25 6.25 13.75  22.5 6.25 13.75  22.5 7.5 13.75  22.5 7.5 15  22.5 6.25 15  21.25 6.25 15  21.25 7.5 13.75  22.5 8.75 13.75  21.25 8.75 13.75  22.5 10 13.75  22.5 10 15  22.5 8.75 15  21.25 8.75 15  21.25 10 13.75  22.5 11.25 13.75  21.25 11.25 13.75  22.5 12.5 13.75  22.5 12.5 15  22.5 11.25 15  21.25 11.25 15  21.25 12.5 13.75  23.75 11.25 13.75  23.75 11.25 15  23.75 12.5 15  25 12.5 15  23.75 12.5 13.75  22.5 13.75 13.75  21.25 13.75 13.75  22.5 15 13.75  22.5 15 15  22.5 13.75 15  21.25 13.75 15  21.25 15 13.75  21.25 15 15  23.75 13.75 13.75  23.75 13.75 15  25 13.75 15  25 15 15  23.75 15 15  23.75 15 13.75  22.5 16.25 13.75  21.25 16.25 13.75  22.5 17.5 13.75  22.5 17.5 15  22.5 16.25 15  21.25 16.25 15  23.75 16.25 13.75  23.75 16.25 15  25 16.25 15  25 17.5 15  23.75 17.5 15  22.5 1.25 16.25  21.25 1.25 16.25  22.5 2.5 16.25  22.5 2.5 17.5  22.5 0 16.25  22.5 0 17.5  22.5 1.25 17.5  21.25 1.25 17.5  21.25 2.5 16.25  22.5 3.75 16.25  21.25 3.75 16.25  22.5 5 16.25  22.5 5 17.5  22.5 3.75 17.5  21.25 5 16.25  22.5 6.25 16.25  21.25 6.25 16.25  22.5 7.5 16.25  22.5 7.5 17.5  22.5 6.25 17.5  21.25 6.25 17.5  21.25 7.5 16.25  22.5 8.75 16.25  21.25 8.75 16.25  22.5 10 16.25  22.5 10 17.5  22.5 8.75 17.5  21.25 8.75 17.5  21.25 10 16.25  22.5 11.25 16.25  21.25 11.25 16.25  22.5 12.5 16.25  22.5 12.5 17.5  22.5 11.25 17.5  21.25 11.25 17.5  21.25 12.5 16.25  20 12.5 17.5  21.25 12.5 17.5  23.75 11.25 16.25  23.75 12.5 16.25  25 12.5 16.25  25 12.5 17.5  23.75 11.25 17.5  23.75 12.5 17.5  22.5 13.75 16.25  21.25 13.75 16.25  22.5 15 16.25  22.5 15 17.5  22.5 13.75 17.5  21.25 13.75 17.5  21.25 15 16.25  20 15 17.5  21.25 15 17.5  23.75 13.75 16.25  25 13.75 16.25  25 15 16.25  25 15 17.5  25 13.75 17.5  23.75 13.75 17.5  23.75 15 16.25  23.75 15 17.5  22.5 16.25 16.25  21.25 16.25 16.25  22.5 17.5 16.25  22.5 17.5 17.5  22.5 16.25 17.5  21.25 16.25 17.5  23.75 16.25 16.25  25 16.25 16.25  25 17.5 16.25  25 17.5 17.5  25 16.25 17.5  23.75 16.25 17.5  23.75 17.5 16.25  23.75 17.5 17.5  22.5 1.25 18.75  21.25 1.25 18.75  22.5 2.5 18.75  22.5 2.5 20  22.5 0 18.75  22.5 0 20  22.5 1.25 20  22.5 3.75 18.75  21.25 3.75 18.75  22.5 5 18.75  22.5 5 20  22.5 3.75 20  22.5 6.25 18.75  21.25 6.25 18.75  22.5 7.5 18.75  22.5 7.5 20  22.5 6.25 20  21.25 6.25 20  22.5 8.75 18.75  21.25 8.75 18.75  22.5 10 18.75  22.5 10 20  22.5 8.75 20  21.25 8.75 20  21.25 10 18.75  21.25 10 20  23.75 8.75 18.75  23.75 8.75 20  23.75 10 20  25 10 20  23.75 10 18.75  22.5 11.25 18.75  21.25 11.25 18.75  22.5 12.5 18.75  22.5 12.5 20  22.5 11.25 20  21.25 11.25 20  21.25 12.5 18.75  21.25 12.5 20  23.75 11.25 18.75  23.75 11.25 20  25 11.25 20  25 12.5 20  23.75 12.5 18.75  25 12.5 18.75  23.75 12.5 20  21.25 13.75 18.75  22.5 13.75 18.75  22.5 15 18.75  22.5 15 20  22.5 13.75 20  21.25 13.75 20  21.25 15 18.75  23.75 13.75 18.75  25 13.75 18.75  25 15 18.75  25 15 20  25 13.75 20  23.75 13.75 20  23.75 15 18.75  23.75 15 20  21.25 16.25 18.75  22.5 16.25 18.75  22.5 17.5 18.75  22.5 17.5 20  22.5 16.25 20  21.25 16.25 20  23.75 16.25 18.75  25 16.25 18.75  25 17.5 18.75  25 17.5 20  25 16.25 20  23.75 16.25 20  23.75 17.5 18.75  23.75 17.5 20  23.75 18.75 18.75  23.75 18.75 20  22.5 6.25 21.25  21.25 6.25 21.25  22.5 7.5 21.25  22.5 7.5 22.5  22.5 5 21.25  22.5 6.25 22.5  23.75 6.25 21.25  23.75 6.25 22.5  23.75 7.5 22.5  25 7.5 22.5  23.75 7.5 21.25  22.5 8.75 21.25  21.25 8.75 21.25  22.5 10 21.25  22.5 10 22.5  22.5 8.75 22.5  21.25 10 21.25  23.75 8.75 21.25  23.75 8.75 22.5  25 8.75 22.5  25 10 22.5  23.75 10 21.25  25 10 21.25  23.75 10 22.5  22.5 11.25 21.25  21.25 11.25 21.25  22.5 12.5 21.25  22.5 12.5 22.5  22.5 11.25 22.5  21.25 12.5 21.25  23.75 11.25 21.25  25 11.25 21.25  25 12.5 21.25  25 12.5 22.5  25 11.25 22.5  23.75 11.25 22.5  23.75 12.5 21.25  23.75 12.5 22.5  22.5 13.75 21.25  21.25 13.75 21.25  22.5 15 21.25  22.5 15 22.5  22.5 13.75 22.5  23.75 13.75 21.25  25 13.75 21.25  25 15 21.25  25 15 22.5  25 13.75 22.5  23.75 13.75 22.5  23.75 15 21.25  23.75 15 22.5  22.5 16.25 21.25  21.25 16.25 21.25  22.5 17.5 21.25  22.5 17.5 22.5  22.5 16.25 22.5  23.75 16.25 21.25  25 16.25 21.25  25 17.5 21.25  25 17.5 22.5  25 16.25 22.5  23.75 16.25 22.5  23.75 17.5 21.25  23.75 17.5 22.5  23.75 18.75 21.25  23.75 7.5 23.75  25 7.5 23.75  22.5 7.5 23.75  23.75 8.75 23.75  25 8.75 23.75  25 10 23
[...]
<PointData  Vectors="u"> 
<DataArray  type="Float64"  Name="u"  NumberOfComponents="3" format="ascii">1.9999999998249294e+02 6.3533795024451776e-10 6.9140775129769718e-11  1.9999999998228174e+02 9.5089097089855959e-13 6.4617042313602062e-11  1.9999999998306490e+02 -8.4311222776515359e-11 -4.7489738995548379e-11  1.9999999998318779e+02 -1.2864961647480881e-10 -3.5353261047766884e-11  1.9999999998310139e+02 -5.3379667562274615e-11 -4.3726402223028028e-11  1.9999999998297076e+02 -4.7183547773983839e-10 -6.4714981402501750e-12  1.9999999998250610e+02 8.9262401675488348e-11 8.8661138267939858e-11  1.9999999998414262e+02 1.0259071772049493e-10 1.4920966456412356e-10  1.9999999998312231e+02 8.0476690576818443e-11 -8.9399464430524823e-11  1.9999999998416371e+02 1.4249755084496240e-10 -2.2001172691241311e-11  1.9999999998312998e+02 -2.3825627881198235e-10 -3.3796564793741516e-11  1.9999999998400369e+02 4.9074818373477624e-11 -5.5432854329318923e-12  1.9999999998316792e+02 -7.2336973637297849e-11 -4.0097790188427795e-11  1.9999999998306990e+02 -6.3761902341633394e-11 -1.2483430731196769e-10  1.9999999998229339e+02 2.7896008978846386e-11 7.7164815559277921e-11  1.9999999998248538e+02 1.4413158771443382e-10 6.7825802409186830e-11  1.9999999998402544e+02 -5.2532193852476998e-13 3.5855994868453966e-11  1.9999999998412139e+02 1.5077880099780031e-10 1.2437218186015177e-10  1.9999999998318211e+02 3.2835219147815139e-11 3.5726887976446571e-11  1.9999999998408904e+02 1.3053756194693902e-10 -4.2338693326158192e-12  1.9999999998315232e+02 -2.3096100709265794e-10 2.2487412570194641e-11  1.9999999998396910e+02 -3.1971838057305032e-11 -2.8802709579226894e-11  1.9999999998319885e+02 -3.4087329210930524e-11 -1.3328579378569392e-11  1.9999999998318484e+02 -1.2429594989212050e-10 -1.9703794577195405e-10  1.9999999998229742e+02 -4.0876358119027926e-11 8.6721077038329398e-11  1.9999999998247594e+02 1.4288460877030367e-10 7.0685146313067977e-11  1.9999999998424030e+02 -4.4759397669984867e-11 -1.2012195559472085e-11  1.9999999998411212e+02 -2.5550485429776839e-11 -4.5917558890524910e-12  1.9999999998407387e+02 1.6945608816832587e-10 5.6495495085935111e-11  1.9999999998319905e+02 -1.9781641218615272e-11 8.6219588830847332e-11  1.9999999998218988e+02 -9.3849812637805662e-11 -9.1114104613885590e-11  1.9999999998306660e+02 -4.3694264035960371e-11 -5.8984542588701635e-11  1.9999999998232803e+02 -1.1463637731799537e-11 1.2041782704751509e-11  1.9999999998248933e+02 1.0293701029570891e-10 1.3726542190273182e-10  1.9999999998228907e+02 9.0856745793839416e-11 2.3377344631746377e-11  1.9999999998312850e+02 -3.6884344343864338e-10 4.6502368957261922e-11  1.9999999998297758e+02 4.3110308736571316e-11 -1.7051818858824594e-10  1.9999999998312461e+02 3.7226630562034746e-11 -5.7254028661409852e-11  1.9999999998311583e+02 -4.7431718772046195e-11 -6.7831146215130435e-11  1.9999999998222518e+02 -6.2244208231169370e-11 -8.0724409172816705e-11  1.9999999998228117e+02 6.0389232527758841e-11 2.2948928519113886e-11  1.9999999998250857e+02 1.1195074447809853e-10 1.0124748060217860e-10  1.9999999998310750e+02 -1.3581648284845694e-10 -1.0236080167167830e-10  1.9999999998319359e+02 4.6754392162795099e-11 -1.1895685320917236e-11  1.9999999998309610e+02 -7.7434021359301537e-11 -6.9453635603085857e-11  1.9999999998227460e+02 -9.3035021078130761e-11 -1.0221894845289339e-10  1.9999999998235054e+02 -3.9420791516560394e-11 2.3478329318014848e-11  1.9999999998321405e+02 -5.1794713150344777e-11 -7.1544442597375102e-11  1.9999999998320155e+02 -5.0477202327712832e-11 -6.5717509539070306e-11  1.9999999998320118e+02 -1.4530205349566727e-10 1.3361901966487167e-11  1.9999999998247316e+02 -1.9308222375278313e-10 -1.5005691719021909e-10  1.9999999998245241e+02 1.3225802736616581e-11 3.5994975148349181e-11  1.9999999998245582e+02 1.4889865594877053e-10 1.1335853687511740e-11  1.9999999998225098e+02 8.3729215712243683e-11 -5.6917705389390867e-12  1.9999999998245062e+02 1.5031739357265069e-10 9.8522171519218885e-11  1.9999999998403669e+02 -1.7787908085262483e-11 -1.6436700796834350e-11  1.9999999998410726e+02 1.5758033123279603e-10 1.0900759993504718e-11  1.9999999998311895e+02 -1.4578604415838920e-10 -7.5196409443289552e-11  1.9999999998318498e+02 -5.0141023129355697e-11 1.0294252962379719e-10  1.9999999998313413e+02 -5.1223001268419151e-11 -4.9078779193826040e-11  1.9999999998304224e+02 -1.7364073672388084e-10 -8.1582603400780950e-11  1.9999999998226764e+02 -5.1541400110877743e-11 -1.0418872979689184e-10  1.9999999998232207e+02 1.9829012481794181e-11 1.7228992343051532e-10  1.9999999998245096e+02 1.4185975030603999e-10 6.4218317524237555e-11  1.9999999998228904e+02 1.1605841746436833e-11 -4.1132825043959559e-12  1.9999999998249069e+02 1.4253430998059519e-10 1.2113374323133827e-10  1.9999999998230305e+02 4.8324204530038503e-11 1.0213642846426306e-11  1.9999999998416743e+02 1.6720896815120139e-10 1.0914955567974302e-11  1.9999999998310605e+02 -1.3660201750860848e-10 -9.4276617933342099e-11  1.9999999998317611e+02 -1.1984180402349850e-12 8.9436943840709633e-11  1.9999999998314382e+02 -6.6597622666507647e-11 -2.7648064655207485e-11  1.9999999998303085e+02 -2.4874321209262984e-10 -1.0671824597632758e-10  1.9999999998221071e+02 -1.2676904361607633e-10 -8.5000199160645450e-11  1.9999999998228031e+02 -3.5818487482107070e-11 1.3469833474998302e-10  1.9999999998248967e+02 1.3749478604776370e-10 1.4114002395782799e-11  1.9999999998224743e+02 6.1493879971856333e-11 6.7621005738908150e-11  1.9999999998247185e+02 1.0053221842942994e-10 9.6057973552903007e-11  1.9999999998226883e+02 1.2418528268855738e-11 3.7810740588435547e-11  1.9999999998309778e+02 -1.4517845562622202e-10 -2.0332916418867886e-11  1.9999999998314792e+02 -1.9371716838854906e-12 1.0552819574082088e-10  1.9999999998222827e+02 -9.8985532994384257e-11 -9.1907654537505567e-11  1.9999999998230919e+02 4.0015259743960237e-11 1.0207461550228515e-10  1.9999999998315289e+02 -1.1666351890075803e-10 -6.4202545760074665e-11  1.9999999998303099e+02 -1.6455695379876990e-10 -2.2614006360689252e-11  1.9999999998250999e+02 7.6918417587218595e-11 2.9303795725840194e-11  1.9999999998588754e+02 6.6422424361491387e-10 7.3491162009669905e-10  1.9999999998480601e+02 -1.2001891230853122e-10 -1.5545804170935856e-10  1.9999999998471117e+02 -2.7490957584969539e-10 -4.7803875453862540e-10  1.9999999998489443e+02 -7.9896593771827813e-11 -6.3930900798636372e-12  1.9999999998417809e+02 6.8178583707573689e-10 7.3889987293548257e-10  1.9999999998389808e+02 -9.0510096951502766e-11 -2.2060733950546365e-10  1.9999999998407904e+02 -1.0315423688566444e-10 -8.5085969049580391e-12  1.9999999998420725e+02 1.9999389412504868e-10 6.7974500941832975e-10  1.9999999998403285e+02 1.7441388544887434e-11 -8.0410262843157819e-11  1.9999999998420219e+02 1.4495927019106237e-10 2.0442549771855680e-10  1.9999999998482585e+02 -3.0167351006582866e-10 -8.5095711554955817e-11  1.9999999998405241e+02 6.1813186870673816e-11 -1.1220852592028379e-10  1.9999999998416095e+02 5.5327631914103913e-10 1.7177491330239764e-10  1.9999999998396581e+02 -3.3236486928910445e-11 1.3769389400725577e-10  1.9999999998476360e+02 2.5581457859922717e-11 -7.5718211035466913e-11  1.9999999998479538e+02 4.7517656058490780e-11 3.3198339519693051e-11  1.9999999998587896e+02 2.0469186727131870e-10 7.1804819813316695e-10  1.9999999998476835e+02 -1.5715401307788281e-10 -2.2076680977307570e-10  1.9999999998487215e+02 -1.2316457662115234e-11 3.5833198745789554e-11  1.9999999998491873e+02 4.7475926943883403e-11 -3.1019913915014845e-11  1.9999999998485350e+02 -4.9632160149624016e-11 -1.8430973006451411e-10  1.9999999998472410e+02 -1.8248562984666980e-10 -4.5397277411612437e-10  1.9999999998389200e+02 -6.7524485523048907e-11 -1.9565863432330504e-10  1.9999999998392525e+02 -5.0629554233715421e-11 -4.6574012743066945e-11  1.9999999998418286e+02 1.4345462063606476e-10 6.9106731096713097e-10  1.9999999998397976e+02 3.9051767094948562e-11 -4.4609875858672322e-11  1.9999999998417263e+02 1.2931410427643203e-10 1.4121523706448231e-10  1.9999999998399605e+02 4.9691081405941317e-14 2.5928357228078616e-11  1.9999999998482267e+02 -4.6395403843087365e-11 -1.6036619223052074e-10  1.9999999998566955e+02 -6.5854830840185191e-11 -4.5802464624616159e-11  1.9999999998590118e+02 1.2297685904111925e-10 6.9355864336810561e-10  1.9999999998483193e+02 -1.3471651935369456e-10 -1.6610944980228878e-10  1.9999999998485177e+02 -8.6060180166810792e-11 6.1602239171304480e-12  1.9999999998483230e+02 -9.4376491266097009e-11 -1.6790171027922384e-10  1.9999999998473135e+02 -1.8338766114236573e-10 -4.4950249049560534e-10  1.9999999998393031e+02 -1.4097860527114585e-10 -1.5809650676352825e-10  1.9999999998396871e+02 -6.2931208024360025e-11 -2.8993245279550322e-11  1.9999999998417377e+02 9.7996818041618257e-11 7.1609721963144612e-10  1.9999999998399164e+02 -2.5630061955982343e-11 -7.6608578074293124e-11  1.9999999998417465e+02 7.1242218166211752e-11 1.5554046328507712e-10  1.9999999998399105e+02 -6.8547697648216630e-11 -3.8310953838040236e-12  1.9999999998399517e+02 -1.0191636868634118e-10 -1.8718621745278205e-10  1.9999999998400307e+02 -3.9164795047535465e-11 -2.2559128587546013e-11  1.9999999998481925e+02 -9.1174843017747126e-11 -1.5867263851230787e-10  1.9999999998422106e+02 1.5302409918250494e-10 6.9606238660595146e-10  1.9999999998400958e+02 1.7483721238334442e-11 -2.4690196279156290e-11  1.9999999998417078e+02 1.2484583805401185e-10 1.3002258967259304e-10  1.9999999998401185e+02 -3.3429476558196886e-11 3.2518583783945107e-11  1.9999999998476568e+02 -1.3359984653982436e-10 -1.5906897478317490e-10  1.9999999998399142e+02 -1.4862602417549703e-10 -1.9574760402487294e-10  1.9999999998399849e+02 -4.8537666008202159e-11 -1.6629589411139690e-11  1.9999999998481849e+02 -8.8037050036171100e-11 -1.7014188526567073e-10  1.9999999998419361e+02 1.4933374883748985e-10 7.1655483843173796e-10  1.9999999998399261e+02 3.2737645151658596e-13 -9.4986847024946432e-11  1.9999999998415052e+02 7.8828740083953504e-11 1.7002715617368225e-10  1.9999999998398650e+02 -2.8268139076760201e-11 3.9194922115466543e-11  1.9999999998393633e+02 4.9332324083663002e-11 -8.9842383404532183e-11  1.9999999998478907e+02 -6.5603787842384587e-11 -5.0281279213817892e-11  1.9999999998404297e+02 3.4912234051608260e-11 6.0158916970118568e-12  1.9999999998420463e+02 9.4895327714036768e-11 9.7988352598932059e-11  1.9999999998394102e+02 8.2725478403370395e-11 3.5252100064197899e-11  1.9999999998480970e+02 -3.6019509120071067e-10 2.3268845703994142e-12  1.9999999998412054e+02 5.9889179042772879e-10 1.5005525833192963e-10  1.9999999998394574e+02 -7.1293215361318303e-11 3.7465138980291646e-11  1.9999999998474883e+02 -2.8266423002160401e-11 -1.3463723533268966e-10  1.9999999998467166e+02 3.4581631241895661e-11 -1.6924173419073416e-10  1.9999999998397064e+02 -1.1458511933734771e-10 -1.2935748121973021e-10  1.9999999998482730e+02 -8.2998264728760677e-11 -7.1019212237659719e-11  1.9999999998401537e+02 2.6352663587437389e-11 -3.5020765796163002e-11  1.9999999998419298e+02 1.0254082766369146e-10 6.7166053237320136e-11  1.9999999998398388e+02 -5.0066568136301985e-11 -4.0741730386346114e-11  1.9999999998477753e+02 -9.2463096814571614e-11 -2.0475890689846831e-10  1.9999999998480845e+02 -1.8184135587035621e-10 -1.1551153869483257e-10  1.9999999998583971e+02 1.3397493239355416e-10 1.2095271951677853e-10  1.9999999998482696e+02 9.5605847362134554e-12 -1.6262063255762810e-11  1.9999999998397357e+02 -9.4417796311277464e-11 -1.3512221079192798e-10  1.9999999998480442e+02 -9.7381524680566589e-11 -1.1212782824574682e-10  1.9999999998399321e+02 7.6674979913146563e-12 -9.0573890830800940e-12  1.9999999998421416e+02 1.3053442723112617e-10 9.9567058802687012e-11  1.9999999998397860e+02 -1.7359122611923853e-11 -1.8327484447045172e-11  1.9999999998477247e+02 -8.5240351085133891e-11 -1.2717057905491731e-10  1.9999999998482701e+02 -1.3474915995893253e-10 -1.2258878076322074e-10  1.9999999998399426e+02 -1.4048152584819256e-10 -6.9366469325362459e-11  1.9999999998480257e+02 -1.4643812316009633e-10 -9.7069476684290282e-11  1.9999999998402438e+02 2.3622980253432856e-11 6.2281890023272272e-12  1.9999999998418662e+02 1.1489376669171810e-10 1.2232364490006544e-10  1.9999999998401060e+02 -5.1959880058553520e-11 1.4809910848084308e-11  1.9999999998482156e+02 -1.2142415450422977e-10 -1.5534344071819882e-10  1.9999999998480075e+02 -6.4644941669945855e-11 -8.7317391356535163e-11  1.9999999998487638e+02 2.7918019949715955e-11 2.4870831613813137e-11  1.9999999998388367e+02 -9.7109393184470046e-11 -9.0017839080696267e-11  1.9999999998481570e+02 -9.6379511565262650e-11 -6.3670649233689953e-11  1.9999999998397800e+02 -1.6718353600034458e-11 4.0162812913308159e-12  1.9999999998415097e+02 5.7471122633123244e-11 1.1992120660809474e-10  1.9999999998400156e+02 3.4006062036053975e-11 4.1706135094776218e-11  1.9999999998479728e+02 -8.1450239183683368e-11 -2.1883468285925085e-10  1.9999999998479262e+02 -1.4079219106766618e-10 -5.8960441923429111e-11  1.9999999998391746e+02 -1.2973817108845440e-10 -1.0374927582980423e-10  1.9999999998393650e+02 -5.1153225773449015e-11 4.4131720898955512e-11  1.9999999998476622e+02 -1.0643873319188593e-10 -9.2519165109325202e-11  1.9999999998417613e+02 1.2861194923193099e-10 1.0909110216315321e-10  1.9999999998399187e+02 2.3756843845185963e-11 1.9739104055165794e-11  1.9999999998416584e+02 9.0412213503846560e-11 1.5228568343069027e-10  1.9999999998395816e+02 -1.3165023664836154e-11 7.5326659308348715e-11  1.9999999998477796e+02 -1.2217434366872559e-10 -1.1453211713486351e-10  1.9999999998386605e+02 -2.6181578149554617e-11 -1.1711132954663539e-10  1.9999999998481948e+02 -1.0180946919060315e-10 -8.7596264344624641e-11  1.9999999998400102e+02 5.7008317279953355e-11 -6.8574124002824271e-11  1.9999999998419801e+02 5.3692573392350631e-11 1.0481513055349573e-10  1.9999999998396342e+02 1.5321528560177388e-11 -2.5390564516755424e-11  1.9999999998411801e+02 5.1763068187663647e-10 7.2511652334632906e-11  1.9999999998392374e+02 -4.4102674020374306e-11 1.1036212370480637e-11  1.9999999998480840e+02 -1.1507620850645077e-11 -1.7384683280077577e-10  1.9999999998471139e+02 -5.2659594394569683e-11 -1.9214239844259516e-10  1.9999999998587597e+02 4.9864039641083026e-11 1.4957970971953427e-10  1.9999999998485106e+02 1.3574833141310506e-11 -7.8629231979854352e-11  1.9999999998394338e+02 -1.5324378824141392e-10 -1.2641759654359867e-10  1.9999999998480408e+02 -4.6909552148893534e-11 -6.1778146410858796e-11  1.9999999998398101e+02 5.9138383000977591e-11 1.0223269484634440e-11  1.9999999998417090e+02 1.1723439656661003e-10 9.2532626060343129e-11  1.9999999998401046e+02 3.5341126141026819e-11 2.2217033840070282e-11  1.9999999998475809e+02 -3.7437045843084429e-11 -1.7726012540410534e-10  1.9999999998477068e+02 -1.7496896092859002e-10 -7.6969201501576452e-11  1.9999999998584278e+02 1.2983854258607893e-10 1.1280491940980279e-10  1.9999999998486217e+02 -9.6194342386144562e-12 4.3237347597803898e-12  1.9999999998479404e+02 -7.4231568123865475e-11 -8.6611398906141934e-11  1.9999999998392616e+02 -7.9213955519671908e-11 -8.9798458266700909e-11  1.9999999998397772e+02 1.1014678570943076e-12 -1.0177834901438470e-11  1.9999999998415157e+02 1.2330995751742211e-10 9.9976275941121952e-11  1.9999999998394435e+02 -1.4277059799858738e-11 1.6150877275565385e-11  1.9999999998479473e+02 -8.2689455099264972e-11 -1.2385576842695787e-10  1.9999999998482701e+02 -1.7769317432898120e-10 -8.7837402300989909e-11  1.9999999998573040e+02 -2.7425031687597132e-11 1.9609885795516257e-11  1.9999999998585520e+02 1.1895721815481565e-10 1.4501509465701543e-10  1.9999999998489062e+02 5.7356735512425872e-12 2.3792255031340489e-11  1.9999999998393071e+02 -1.0345409680814826e-10 -7.8511659074891295e-11  1.9999999998480152e+02 -8.3885931283163069e-11 -6.0348216288292123e-11  1.9999999998399184e+02 3.0162586211634795e-11 1.3972185644470381e-11  1.9999999998417908e+02 8.8536948829545607e-11 1.3499399740196766e-10  1.9999999998397681e+02 1.9463054520447564e-11 3.1275154250833688e-11  1.9999999998481908e+02 -7.3369521567461102e-11 -1.2044659807942694e-10  1.9999999998479782e+02 -1.8336672248447138e-10 -1.0322799996602943e-10  1.9999999998393434e+02 -9.5413793717714990e-11 -8.9384461845096546e-11  1.9999999998481726e+02 -9.2961425728547089e-11 -7.1248133594963021e-11  1.9999999998400494e+02 3.1372005535811675e-11 2.0367383550889455e-11  1.9999999998420284e+02 8.2529315723317343e-11 1.2216804754876679e-10  1.9999999998401850e+02 1.1547022040855184e-11 3.5686689150685511e-11  1.9999999998480257e+02 -1.1073041425352263e-10 -1.3540962266611932e-10  1.9999999998478634e+02 -1.0167316681821993e-10 -1.0803232065571924e-10  1.9999999998489420e+02 2.2459277830622907e-11 2.6051786959559137e-11  1.9999999998392698e+02 -1.2073208657750171e-10 -7.6261258390255818e-11  1.9999999998481161e+02 -7.3664843691475641e-11 -7.6908510958539145e-11  1.9999999998395521e+02 2.7042470655198870e-11 1.9472284919047623e-11  1.9999999998415967e+02 1.0567649655317110e-10 1.3626031652974038e-10  1.9999999998398667e+02 3.9137064041332669e-11 4.7334767738014108e-11  1.9999999998479575e+02 -1.0428445380918424e-10 -1.5099123708137867e-10  1.9999999998382978e+02 -5.2996307476166719e-11 -1.5489564971117266e-10  1.9999999998483122e+02 -9.4503043351737025e-11 -9.6695707280978646e-11  1.9999999998400952e+02 7.5657473704318890e-11 -5.0957282937724583e-11  1.9999999998418951e+02 8.8229580091100715e-11 1.6621534862472914e-10  1.9999999998389890e+02 6.6831999185105858e-11 -2.0097257788492678e-11  1.9999999998414160e+02 5.4119607454957983e-10 1.2736034760324140e-10  1.9999999998391385e+02 -8.5425765967503028e-11 8.9655278756164163e-11  1.9999999998478094e+02 9.9451301830364564e-12 -1.3037347301944528e-10  1.9999999998464443e+02 9.5375374182325473e-12 -2.2039977840618130e-10  1.9999999998483426e+02 1.3269760551058591e-11 -2.3925427301421609e-11  1.9999999998482284e+02 -6.1158234002816253e-11 -8.7717890678907511e-11  1.9999999998397871e+02 -7.4004881398704270e-11 -9.3488775589426004e-11  1.9999999998396100e+02 3.1349172328342779e-11 -2.2880527962109933e-11  1.9999999998418269e+02 1.3870243051491372e-10 1.1455471818974494e-10  1.9999999998402146e+02 6.1561008898026048e-12 8.3802387317989732e-13  1.9999999998477520e+02 -6.3413374001619077e-11 -1.4407123714441073e-10  1.9999999998478745e+02 -1.1943140486657465e-10 -9.2978304057334333e-11  1.9999999998586549e+02 1.4833989878146798e-10 1.1826237295416213e-10  1.9999999998483173e+02 3.7865637807667735e-11 7.1714827765286015e-13  1.9999999998574617e+02 6.1929341570842446e-11 -3.7590115594770556e-11  1.9999999998481687e+02 -7.2355463730570487e-11 -8.1292116531382730e-11  1.9999999998390831e+02 -9.3372731306123741e-11 -8.2186704476723858e-11  1.9999999998396333e+02 6.1378853663907570e-11 4.7610642506753634e-12  1.9999999998420020e+02 9.0572032549603033e-11 1.1855873573903136e-10  1.9999999998400503e+02 5.5748547155769177e-12 2.7520262257104551e-11  1.9999999998479456e+02 -1.0040034271113344e-10 -1.5712603718723862e-10  1.9999999998479734e+02 -1.9612292387988314e-10 -9.6392007220294681e-11  1.9999999998585676e+02 9.5005851277327893e-11 8.6152424449594594e-11  1.9999999998484927e+02 2.1041899966598561e-11 2.6852323334692081e-11  1.9999999998483742e+02 -7.4414571436783843e-11 -9.5381913176594385e-11  1.9999999998388913e+02 -1.0981308737453237e-10 -1.2353138571458968e-10  1.9999999998399738e+02 2.5366931230897737e-11 -1.9715905426258266e-11  1.9999999998417141e+02 9.9353369916068302e-11 9.7981928546274971e-11  1.9999999998400514e+02 2.4438018372574195e-11 3.3702388783329493e-11  1.9999999998478583e+02 -6.7776150805771251e-11 -1.3490776999527959e-10  1.9999999998480874e+02 -1.6980430996224579e-10 -9.6965104504275002e-11  1.9999999998486587e+02 1.1755988039157871e-11 3.1674143473078145e-12  1.9999999998394654e+02 -1.2331224373991623e-10 -1.0894226894166964e-10  1.9999999998480197e+02 -1.0186392346315946e-10 -6.93017394243