<?xml version="1.0"?>
<VTKFile type="UnstructuredGrid"  version="0.1"  >
<UnstructuredGrid>
<Piece  NumberOfPoints="3966" NumberOfCells="18901">
<Points>
<DataArray  type="Float64"  NumberOfComponents="3"  format="ascii">2.5 0 27.5  2.5 1.25 27.5  2.5 1.25 26.25  1.25 1.25 26.25  2.5 2.5 27.5  0 0 27.5  1.25 1.25 27.5  1.25 0 27.5  1.25 0 26.25  0 1.25 27.5  0 1.25 26.25  0 2.5 27.5  1.25 2.5 27.5  1.25 2.5 26.25  5 0 27.5  5 1.25 27.5  5 1.25 26.25  3.75 1.25 26.25  5 2.5 27.5  3.75 1.25 27.5  3.75 0 27.5  3.75 2.5 27.5  6.25 1.25 27.5  6.25 0 27.5  6.25 1.25 26.25  6.25 0 26.25  7.5 0 27.5  7.5 1.25 27.5  7.5 2.5 27.5  7.5 2.5 25  7.5 2.5 26.25  6.25 2.5 26.25  6.25 2.5 27.5  2.5 3.75 27.5  2.5 3.75 26.25  1.25 3.75 26.25  2.5 5 27.5  1.25 3.75 27.5  0 3.75 27.5  0 3.75 26.25  0 5 27.5  1.25 5 27.5  3.75 3.75 27.5  3.75 3.75 26.25  5 3.75 27.5  5 5 27.5  3.75 5 27.5  7.5 3.75 26.25  7.5 3.75 25  6.25 3.75 26.25  7.5 5 25  7.5 5 26.25  7.5 5 27.5  7.5 3.75 27.5  6.25 3.75 27.5  6.25 5 26.25  6.25 5 27.5  1.25 6.25 27.5  1.25 6.25 26.25  0 6.25 27.5  0 7.5 27.5  7.5 6.25 26.25  6.25 6.25 26.25  7.5 6.25 27.5  7.5 7.5 27.5  6.25 6.25 27.5  1.25 1.25 28.75  2.5 1.25 28.75  2.5 2.5 28.75  2.5 2.5 30  1.25 0 28.75  2.5 0 28.75  2.5 0 30  2.5 1.25 30  0 0 28.75  0 0 30  1.25 1.25 30  1.25 0 30  1.25 2.5 28.75  0 1.25 28.75  0 1.25 30  0 2.5 30  1.25 2.5 30  0 2.5 28.75  3.75 1.25 28.75  5 1.25 28.75  5 2.5 28.75  5 2.5 30  3.75 0 28.75  5 0 28.75  5 0 30  5 1.25 30  3.75 1.25 30  3.75 0 30  3.75 2.5 28.75  3.75 2.5 30  6.25 1.25 28.75  7.5 1.25 28.75  7.5 2.5 28.75  7.5 2.5 30  6.25 0 28.75  7.5 0 28.75  7.5 0 30  7.5 1.25 30  6.25 1.25 30  6.25 0 30  6.25 2.5 28.75  6.25 2.5 30  1.25 3.75 28.75  2.5 3.75 28.75  2.5 5 28.75  2.5 5 30  2.5 3.75 30  1.25 3.75 30  1.25 5 28.75  0 3.75 28.75  0 3.75 30  0 5 30  1.25 5 30  0 5 28.75  3.75 3.75 28.75  5 3.75 28.75  5 5 28.75  5 5 30  5 3.75 30  3.75 3.75 30  3.75 5 28.75  3.75 5 30  6.25 3.75 28.75  7.5 3.75 28.75  7.5 5 28.75  7.5 5 30  7.5 3.75 30  6.25 3.75 30  6.25 5 28.75  6.25 5 30  1.25 6.25 28.75  1.25 6.25 30  0 6.25 28.75  0 6.25 30  0 7.5 30  0 7.5 28.75  6.25 6.25 28.75  7.5 6.25 28.75  1.25 1.25 31.25  2.5 1.25 31.25  2.5 2.5 31.25  2.5 2.5 32.5  1.25 0 31.25  2.5 0 31.25  2.5 0 32.5  2.5 1.25 32.5  0 0 31.25  0 0 32.5  1.25 1.25 32.5  1.25 0 32.5  1.25 2.5 31.25  0 1.25 31.25  0 1.25 32.5  0 2.5 32.5  1.25 2.5 32.5  0 2.5 31.25  3.75 1.25 31.25  5 1.25 31.25  5 2.5 31.25  5 2.5 32.5  3.75 0 31.25  5 0 31.25  5 0 32.5  5 1.25 32.5  3.75 1.25 32.5  3.75 0 32.5  3.75 2.5 31.25  3.75 2.5 32.5  6.25 1.25 31.25  7.5 1.25 31.25  7.5 2.5 31.25  7.5 2.5 32.5  6.25 0 31.25  7.5 0 31.25  7.5 0 32.5  7.5 1.25 32.5  6.25 1.25 32.5  6.25 0 32.5  6.25 2.5 31.25  6.25 2.5 32.5  1.25 3.75 31.25  2.5 3.75 31.25  2.5 5 31.25  2.5 5 32.5  2.5 3.75 32.5  1.25 3.75 32.5  1.25 5 31.25  0 3.75 31.25  0 3.75 32.5  0 5 32.5  1.25 5 32.5  0 5 31.25  3.75 3.75 31.25  5 3.75 31.25  5 5 31.25  5 5 32.5  5 3.75 32.5  3.75 3.75 32.5  3.75 5 31.25  3.75 5 32.5  6.25 3.75 31.25  7.5 3.75 31.25  7.5 5 31.25  7.5 5 32.5  7.5 3.75 32.5  6.25 3.75 32.5  6.25 5 31.25  6.25 5 32.5  1.25 6.25 31.25  2.5 6.25 31.25  2.5 6.25 32.5  2.5 7.5 32.5  1.25 6.25 32.5  0 6.25 31.25  0 6.25 32.5  0 7.5 32.5  0 7.5 31.25  3.75 6.25 31.25  3.75 6.25 32.5  6.25 6.25 31.25  7.5 6.25 31.25  7.5 6.25 32.5  7.5 7.5 32.5  6.25 6.25 32.5  1.25 1.25 33.75  2.5 1.25 33.75  2.5 2.5 33.75  2.5 2.5 35  1.25 0 33.75  2.5 0 33.75  2.5 0 35  2.5 1.25 35  0 0 33.75  0 0 35  1.25 1.25 35  1.25 0 35  1.25 2.5 33.75  0 1.25 33.75  0 1.25 35  0 2.5 35  1.25 2.5 35  0 2.5 33.75  3.75 1.25 33.75  5 1.25 33.75  5 2.5 33.75  5 2.5 35  3.75 0 33.75  5 0 33.75  5 0 35  5 1.25 35  3.75 1.25 35  3.75 0 35  3.75 2.5 33.75  3.75 2.5 35  6.25 1.25 33.75  7.5 1.25 33.75  7.5 2.5 33.75  7.5 2.5 35  6.25 0 33.75  7.5 0 33.75  7.5 0 35  7.5 1.25 35  6.25 1.25 35  6.25 0 35  6.25 2.5 33.75  6.25 2.5 35  1.25 3.75 33.75  2.5 3.75 33.75  2.5 5 33.75  2.5 5 35  2.5 3.75 35  1.25 3.75 35  1.25 5 33.75  0 3.75 33.75  0 3.75 35  0 5 35  1.25 5 35  0 5 33.75  3.75 3.75 33.75  5 3.75 33.75  5 5 33.75  5 5 35  5 3.75 35  3.75 3.75 35  3.75 5 33.75  3.75 5 35  6.25 3.75 33.75  7.5 3.75 33.75  7.5 5 33.75  7.5 5 35  7.5 3.75 35  6.25 3.75 35  6.25 5 33.75  6.25 5 35  1.25 6.25 33.75  2.5 6.25 33.75  2.5 7.5 33.75  2.5 7.5 35  2.5 6.25 35  1.25 6.25 35  0 6.25 33.75  0 6.25 35  0 7.5 35  1.25 7.5 35  0 7.5 33.75  3.75 6.25 33.75  5 6.25 33.75  5 6.25 35  5 7.5 35  3.75 6.25 35  3.75 7.5 35  6.25 6.25 33.75  7.5 6.25 33.75  7.5 6.25 35  7.5 7.5 35  6.25 6.25 35  6.25 7.5 35  1.25 1.25 36.25  2.5 1.25 36.25  2.5 2.5 36.25  2.5 2.5 37.5  1.25 0 36.25  2.5 0 36.25  2.5 0 37.5  2.5 1.25 37.5  0 0 36.25  0 0 37.5  1.25 1.25 37.5  1.25 0 37.5  1.25 2.5 36.25  0 1.25 36.25  0 1.25 37.5  0 2.5 37.5  1.25 2.5 37.5  0 2.5 36.25  3.75 1.25 36.25  5 1.25 36.25  5 2.5 36.25  5 2.5 37.5  3.75 0 36.25  5 0 36.25  5 0 37.5  5 1.25 37.5  3.75 1.25 37.5  3.75 0 37.5  3.75 2.5 36.25  3.75 2.5 37.5  6.25 1.25 36.25  7.5 1.25 36.25  7.5 2.5 36.25  7.5 2.5 37.5  6.25 0 36.25  7.5 0 36.25  7.5 0 37.5  7.5 1.25 37.5  6.25 1.25 37.5  6.25 0 37.5  6.25 2.5 36.25  6.25 2.5 37.5  1.25 3.75 36.25  2.5 3.75 36.25  2.5 5 36.25  2.5 5 37.5  2.5 3.75 37.5  1.25 3.75 37.5  1.25 5 36.25  0 3.75 36.25  0 3.75 37.5  0 5 37.5  1.25 5 37.5  0 5 36.25  3.75 3.75 36.25  5 3.75 36.25  5 5 36.25  5 5 37.5  5 3.75 37.5  3.75 3.75 37.5  3.75 5 36.25  3.75 5 37.5  6.25 3.75 36.25  7.5 3.75 36.25  7.5 5 36.25  7.5 5 37.5  7.5 3.75 37.5  6.25 3.75 37.5  6.25 5 36.25  6.25 5 37.5  1.25 6.25 36.25  2.5 6.25 36.25  2.5 7.5 36.25  2.5 7.5 37.5  2.5 6.25 37.5  1.25 6.25 37.5  1.25 7.5 36.25  0 6.25 36.25  0 6.25 37.5  0 7.5 37.5  1.25 7.5 37.5  0 7.5 36.25  3.75 6.25 36.25  5 6.25 36.25  5 7.5 36.25  5 7.5 37.5  5 6.25 37.5  3.75 6.25 37.5  3.75 7.5 36.25  3.75 7.5 37.5  6.25 6.25 36.25  7.5 6.25 36.25  7.5 7.5 36.25  7.5 7.5 37.5  7.5 6.25 37.5  6.25 6.25 37.5  6.25 7.5 36.25  6.25 7.5 37.5  1.25 8.75 36.25  1.25 8.75 37.5  0 8.75 36.25  0 8.75 37.5  0 10 37.5  0 8.75 35  0 10 35  0 10 36.25  3.75 8.75 36.25  5 8.75 36.25  5 8.75 37.5  3.75 8.75 37.5  6.25 8.75 36.25  7.5 8.75 36.25  7.5 8.75 37.5  7.5 10 37.5  6.25 8.75 37.5  1.25 1.25 38.75  2.5 1.25 38.75  2.5 2.5 38.75  2.5 2.5 40  1.25 0 38.75  2.5 0 38.75  2.5 0 40  2.5 1.25 40  0 0 38.75  0 0 40  1.25 1.25 40  1.25 0 40  1.25 2.5 38.75  0 1.25 38.75  0 1.25 40  0 2.5 40  1.25 2.5 40  0 2.5 38.75  3.75 1.25 38.75  5 1.25 38.75  5 2.5 38.75  5 2.5 40  3.75 0 38.75  5 0 38.75  5 0 40  5 1.25 40  3.75 1.25 40  3.75 0 40  3.75 2.5 38.75  3.75 2.5 40  6.25 1.25 38.75  7.5 1.25 38.75  7.5 2.5 38.75  7.5 2.5 40  6.25 0 38.75  7.5 0 38.75  7.5 0 40  7.5 1.25 40  6.25 1.25 40  6.25 0 40  6.25 2.5 38.75  6.25 2.5 40  1.25 3.75 38.75  2.5 3.75 38.75  2.5 5 38.75  2.5 5 40  2.5 3.75 40  1.25 3.75 40  1.25 5 38.75  0 3.75 38.75  0 3.75 40  0 5 40  1.25 5 40  0 5 38.75  3.75 3.75 38.75  5 3.75 38.75  5 5 38.75  5 5 40  5 3.75 40  3.75 3.75 40  3.75 5 38.75  3.75 5 40  6.25 3.75 38.75  7.5 3.75 38.75  7.5 5 38.75  7.5 5 40  7.5 3.75 40  6.25 3.75 40  6.25 5 38.75  6.25 5 40  1.25 6.25 38.75  2.5 6.25 38.75  2.5 7.5 38.75  2.5 7.5 40  2.5 6.25 40  1.25 6.25 40  1.25 7.5 38.75  0 6.25 38.75  0 6.25 40  0 7.5 40  1.25 7.5 40  0 7.5 38.75  3.75 6.25 38.75  5 6.25 38.75  5 7.5 38.75  5 7.5 40  5 6.25 40  3.75 6.25 40  3.75 7.5 38.75  3.75 7.5 40  6.25 6.25 38.75  7.5 6.25 38.75  7.5 7.5 38.75  7.5 7.5 40  7.5 6.25 40  6.25 6.25 40  6.25 7.5 38.75  6.25 7.5 40  1.25 8.75 38.75  2.5 8.75 38.75  2.5 8.75 40  2.5 10 40  1.25 8.75 40  0 8.75 38.75  0 8.75 40  0 10 40  1.25 10 40  0 10 38.75  3.75 8.75 38.75  5 8.75 38.75  5 8.75 40  5 10 40  3.75 8.75 40  3.75 10 40  6.25 8.75 38.75  7.5 8.75 38.75  7.5 8.75 40  7.5 10 40  6.25 8.75 40  6.25 10 40  1.25 1.25 41.25  2.5 1.25 41.25  2.5 2.5 41.25  2.5 2.5 42.5  1.25 0 41.25  2.5 0 41.25  2.5 0 42.5  2.5 1.25 42.5  0 0 41.25  0 0 42.5  1.25 1.25 42.5  1.25 0 42.5  1.25 2.5 41.25  0 1.25 41.25  0 1.25 42.5  0 2.5 42.5  1.25 2.5 42.5  0 2.5 41.25  3.75 1.25 41.25  5 1.25 41.25  5 2.5 41.25  5 2.5 42.5  3.75 0 41.25  5 0 41.25  5 0 42.5  5 1.25 42.5  3.75 1.25 42.5  3.75 0 42.5  3.75 2.5 41.25  3.75 2.5 42.5  6.25 1.25 41.25  7.5 1.25 41.25  7.5 2.5 41.25  7.5 2.5 42.5  6.25 0 41.25  7.5 0 41.25  7.5 0 42.5  7.5 1.25 42.5  6.25 1.25 42.5  6.25 0 42.5  6.25 2.5 41.25  6.25 2.5 42.5  1.25 3.75 41.25  2.5 3.75 41.25  2.5 5 41.25  2.5 5 42.5  2.5 3.75 42.5  1.25 3.75 42.5  1.25 5 41.25  0 3.75 41.25  0 3.75 42.5  0 5 42.5  1.25 5 42.5  0 5 41.25  3.75 3.75 41.25  5 3.75 41.25  5 5 41.25  5 5 42.5  5 3.75 42.5  3.75 3.75 42.5  3.75 5 41.25  3.75 5 42.5  6.25 3.75 41.25  7.5 3.75 41.25  7.5 5 41.25  7.5 5 42.5  7.5 3.75 42.5  6.25 3.75 42.5  6.25 5 41.25  6.25 5 42.5  1.25 6.25 41.25  2.5 6.25 41.25  2.5 7.5 41.25  2.5 7.5 42.5  2.5 6.25 42.5  1.25 6.25 42.5  1.25 7.5 41.25  0 6.25 41.25  0 6.25 42.5  0 7.5 42.5  1.25 7.5 42.5  0 7.5 41.25  3.75 6.25 41.25  5 6.25 41.25  5 7.5 41.25  5 7.5 42.5  5 6.25 42.5  3.75 6.25 42.5  3.75 7.5 41.25  3.75 7.5 42.5  6.25 6.25 41.25  7.5 6.25 41.25  7.5 7.5 41.25  7.5 7.5 42.5  7.5 6.25 42.5  6.25 6.25 42.5  6.25 7.5 41.25  6.25 7.5 42.5  1.25 8.75 41.25  2.5 8.75 41.25  2.5 10 41.25  2.5 10 42.5  2.5 8.75 42.5  1.25 8.75 42.5  1.25 10 41.25  0 8.75 41.25  0 8.75 42.5  0 10 42.5  1.25 10 42.5  0 10 41.25  3.75 8.75 41.25  5 8.75 41.25  5 10 41.25  5 10 42.5  5 8.75 42.5  3.75 8.75 42.5  3.75 10 41.25  3.75 10 42.5  6.25 8.75 41.25  7.5 8.75 41.25  7.5 10 41.25  7.5 10 42.5  7.5 8.75 42.5  6.25 8.75 42.5  6.25 10 41.25  6.25 10 42.5  8.75 8.75 41.25  8.75 8.75 42.5  8.75 10 42.5  10 10 42.5  8.75 10 41.25  1.25 11.25 41.25  2.5 11.25 41.25  2.5 11.25 42.5  2.5 12.5 42.5  1.25 11.25 42.5  0 11.25 41.25  0 11.25 42.5  0 12.5 42.5  0 11.25 40  0 12.5 40  0 12.5 41.25  3.75 11.25 41.25  5 11.25 41.25  5 11.25 42.5  5 12.5 42.5  3.75 11.25 42.5  6.25 11.25 41.25  7.5 11.25 41.25  6.25 11.25 42.5  8.75 11.25
[...]
<PointData  Vectors="u"> 
<DataArray  type="Float64"  Name="u"  NumberOfComponents="3" format="ascii">1.9999999999824772e+02 5.2977397706353433e-10 1.4255630557319881e-10  1.9999999999827853e+02 -1.4937954315305346e-11 4.6884341529539779e-12  1.9999999999795475e+02 -7.1621208225578518e-11 -1.5505771356549820e-10  1.9999999999898608e+02 -5.4944608387178750e-11 -1.1368915417620498e-10  1.9999999999821335e+02 1.3111214929039410e-10 1.2938166988474338e-10  2.0000000000055289e+02 6.3984395624381254e-10 1.4086133545818405e-10  1.9999999999907845e+02 -5.6604201721832847e-11 -1.0367295388050226e-10  1.9999999999910679e+02 2.5173689920559469e-12 1.3560451040663908e-11  1.9999999999897176e+02 -3.6104023903341439e-10 3.7130224188014391e-11  1.9999999999991013e+02 -3.0538864491194817e-11 1.6592705280401809e-12  1.9999999999973980e+02 -1.0727027343022714e-10 -2.5844634759825245e-11  2.0000000000059961e+02 1.8404693182410727e-10 1.4857815528219850e-10  1.9999999999901164e+02 3.4406430385575619e-11 -3.2106086425146829e-11  1.9999999999907678e+02 -3.6903603498255579e-11 -1.2154913315369364e-10  1.9999999999646590e+02 5.8200905765799235e-10 1.0999317784116374e-10  1.9999999999639604e+02 5.8761049589707911e-12 3.3591879828175720e-11  1.9999999999610981e+02 -1.1377108480540971e-10 -1.0513150965512665e-10  1.9999999999716584e+02 -1.3858930735281857e-10 -1.1605110038503765e-10  1.9999999999648057e+02 1.3891125693816324e-10 1.2961264482430472e-10  1.9999999999712003e+02 2.0212434133941796e-11 -1.5170359627561103e-10  1.9999999999723187e+02 3.4778104069727389e-11 -8.6102800312488601e-11  1.9999999999726211e+02 7.0518307302036759e-11 -1.1647263797424245e-10  1.9999999999532298e+02 -5.8107055130180250e-11 -1.0216147605556136e-10  1.9999999999540509e+02 -2.5581348020550856e-11 -7.9854840321429322e-11  1.9999999999537883e+02 -1.4344938393592621e-10 -2.7949416294165443e-11  1.9999999999521873e+02 -5.4469876668330972e-10 -4.7077661854213865e-12  1.9999999999469279e+02 6.1018576539596742e-10 7.0341624999993306e-11  1.9999999999445404e+02 -1.1054736262422938e-11 1.1374093078144825e-10  1.9999999999470660e+02 1.2887868004568132e-10 1.0092853012810188e-10  1.9999999999470708e+02 1.1587091730717465e-10 -4.9326816221161545e-11  1.9999999999447087e+02 1.7975008921370420e-10 6.5715741098119562e-12  1.9999999999533037e+02 -1.8419527609183861e-10 3.8500004807803201e-11  1.9999999999541791e+02 1.0356158658460764e-10 -1.2951878212006443e-10  1.9999999999821671e+02 3.6938862963456744e-11 -6.7297956863684997e-11  1.9999999999808946e+02 -2.2020994819349089e-10 -2.5832230175782012e-10  1.9999999999902491e+02 -5.3387908436322661e-11 -3.5811697677355722e-11  1.9999999999817442e+02 1.7789305914040035e-10 1.3158728737772401e-10  1.9999999999906359e+02 -1.2029439049083289e-10 -9.5631297806290324e-11  2.0000000000002873e+02 -1.4650381626480975e-11 -1.1993188454418015e-10  1.9999999999962668e+02 -6.1193515942697746e-11 -4.6488076503748696e-11  2.0000000000058944e+02 1.4895838017752600e-10 1.0465604694638709e-10  1.9999999999905793e+02 -5.4859869186171861e-11 -1.1258684233392057e-11  1.9999999999723488e+02 -7.0463929665381559e-11 -1.7837747407491517e-10  1.9999999999721507e+02 -6.2442354080956588e-11 -8.4610064686288390e-11  1.9999999999634124e+02 1.1120650560681813e-11 -4.7345687703173645e-11  1.9999999999647784e+02 1.3414024072344441e-10 8.4186894187451456e-11  1.9999999999726370e+02 1.0643568698777985e-11 -3.2873632167560621e-11  1.9999999999445083e+02 -1.0239551227229920e-10 1.4105465581677176e-11  1.9999999999444594e+02 2.6937127332402886e-11 1.0404084876867891e-10  1.9999999999536428e+02 -3.1826624795518528e-11 -1.1836075921356919e-10  1.9999999999467164e+02 1.8682349103378737e-10 -6.5511651210608171e-12  1.9999999999443349e+02 2.2379270126478022e-11 -9.7256913871929087e-12  1.9999999999466488e+02 1.4627685039516880e-10 8.9408669091308311e-11  1.9999999999449764e+02 6.1380644153989751e-12 5.3506644591035010e-11  1.9999999999533608e+02 -6.3908652046913096e-11 -2.1006268189712050e-10  1.9999999999534273e+02 -1.7100729752250161e-10 -8.7354288616760490e-11  1.9999999999543402e+02 5.5236156221145133e-11 -2.8881116322049646e-11  1.9999999999907396e+02 -1.1941260121729151e-10 -7.9440789954047703e-11  1.9999999999899697e+02 -4.2889277018212982e-11 -3.6991878894805430e-11  1.9999999999999051e+02 -3.3399828515199660e-11 -1.1049686297888126e-10  2.0000000000056377e+02 1.7547508843813056e-10 1.0978057859232437e-10  1.9999999999445620e+02 -1.1933860091019082e-10 -1.2153581648663650e-10  1.9999999999536959e+02 -1.2020104264073056e-10 -1.0196319393564597e-10  1.9999999999445063e+02 2.7559031917346112e-12 4.4897558526549277e-11  1.9999999999467457e+02 1.1111335835350594e-10 1.0318873730938908e-10  1.9999999999537366e+02 -1.0511708718808694e-10 -2.2279750183977288e-10  1.9999999999905410e+02 -8.7865970472558386e-11 -9.1641892638664147e-11  1.9999999999820702e+02 9.5794522712145948e-11 -2.3212625617982207e-10  1.9999999999820639e+02 9.9301081467378171e-11 -2.5324302251186051e-11  1.9999999999817845e+02 1.0543508059804691e-10 1.6414078906159569e-10  1.9999999999901945e+02 -3.9839190518492854e-10 -6.2485428546543944e-11  1.9999999999823291e+02 2.9674198485110028e-11 -4.2247799417884885e-11  1.9999999999822910e+02 5.4703363197535710e-10 1.4439491397475637e-10  1.9999999999820304e+02 -5.2184192938980312e-11 -5.2528629726267339e-11  2.0000000000006770e+02 5.2701895466856432e-11 -5.8445468007491268e-11  2.0000000000054135e+02 5.7477224502506610e-10 1.5329328447476797e-10  1.9999999999909986e+02 -5.9810648584259222e-11 -1.5425201430876437e-10  1.9999999999905987e+02 6.0694304298895681e-11 -2.6502708588602697e-11  1.9999999999900217e+02 -2.7116986023794604e-11 -1.2648543869538216e-10  1.9999999999956196e+02 -6.9847905422492381e-11 -6.5595403814879972e-11  1.9999999999991260e+02 -4.1343354751281383e-11 -1.1316717696803814e-11  2.0000000000058500e+02 1.8416653605857862e-10 1.2764453553195070e-10  1.9999999999904335e+02 3.0576452082762477e-11 -3.2067143621608107e-11  1.9999999999999898e+02 -4.9424747078677351e-11 -6.0675001417864821e-11  1.9999999999718406e+02 -4.3563645708222069e-11 -7.0103906134298267e-11  1.9999999999618123e+02 8.2617772070423257e-12 -5.9535955797224221e-11  1.9999999999624751e+02 7.2311410105212120e-11 -5.2540621174741197e-11  1.9999999999649577e+02 7.9486961792511171e-11 1.1695461978516695e-10  1.9999999999722303e+02 -3.6374954664539996e-10 -5.6001582108758575e-11  1.9999999999623358e+02 5.7749781342031465e-11 1.2139121683290874e-11  1.9999999999646127e+02 5.7286984634064764e-10 1.0321162576864324e-10  1.9999999999636759e+02 -9.6760675548342880e-11 2.3916803665712979e-11  1.9999999999720117e+02 4.0023492968976064e-12 -1.4162622340667994e-10  1.9999999999725594e+02 3.6707513839382587e-11 -8.2451319933910657e-11  1.9999999999713725e+02 -7.1261909259977814e-12 -2.0603573000817771e-10  1.9999999999727390e+02 4.2830172089031451e-11 -1.2654930950579106e-10  1.9999999999535359e+02 -1.5829187405722941e-11 -6.9341587494532781e-11  1.9999999999433527e+02 -1.1469443642464052e-10 -1.2467589492267380e-10  1.9999999999452044e+02 -1.3528673115748668e-11 -8.6535972996295253e-11  1.9999999999467227e+02 1.0545271609927672e-10 1.2883066733010492e-10  1.9999999999537582e+02 -4.7181543116527563e-10 2.8531981647869431e-11  1.9999999999452157e+02 1.4109411268125370e-10 3.4036589529981158e-13  1.9999999999466158e+02 5.7398926349196096e-10 1.1836666601595290e-10  1.9999999999444796e+02 -6.5515872445760865e-11 3.8425237478384185e-11  1.9999999999529390e+02 3.2103299203586081e-12 -1.5195056513236954e-10  1.9999999999539222e+02 2.8382552414787501e-11 -4.6235957517054205e-11  1.9999999999522043e+02 9.7146903602667568e-12 -1.9623246996939791e-10  1.9999999999537772e+02 5.2160821287007884e-11 -5.0736742390934111e-11  1.9999999999894089e+02 -5.7620629897903694e-11 -8.9343549582328326e-11  1.9999999999810942e+02 -1.6783768432451262e-10 -2.2724976216701451e-10  1.9999999999819877e+02 -3.1692373624202092e-11 -6.1870895682444551e-11  1.9999999999818448e+02 1.9852329065767600e-10 1.3843906423668097e-10  1.9999999999814710e+02 -2.8366468801461436e-11 -8.8577631231136211e-11  1.9999999999899924e+02 -8.4589872494505779e-11 -1.7110853825205642e-10  1.9999999999901303e+02 -1.5158556498690589e-10 -1.2156284808434250e-10  1.9999999999967386e+02 -1.4798283089062124e-11 -2.1223742195201419e-11  2.0000000000006068e+02 -5.5572665163060740e-11 -9.2113461698725506e-11  2.0000000000055084e+02 1.6714166886408893e-10 1.1094134900601830e-10  1.9999999999897602e+02 4.2353250116373097e-11 -5.2778948339922463e-12  2.0000000000002450e+02 -6.4569104753188689e-11 -2.6308325237733770e-11  1.9999999999720418e+02 -5.2475682774467356e-11 -7.7782780384575425e-11  1.9999999999623560e+02 -7.3809846854280461e-11 -1.2831837786246448e-10  1.9999999999637697e+02 1.8215961483325588e-11 -8.9294393193220052e-11  1.9999999999645152e+02 1.4207125787068421e-10 1.0076581886775345e-10  1.9999999999636356e+02 2.8051627184415431e-12 -6.1156315059208203e-11  1.9999999999721209e+02 -8.4078401035075143e-11 -2.2050498704074074e-10  1.9999999999716340e+02 -1.3921191161462885e-10 -1.0915752655620584e-10  1.9999999999726435e+02 5.7026784418124452e-11 -4.2089048592834109e-11  1.9999999999534600e+02 -3.9145291359607825e-11 -9.6901672174354918e-11  1.9999999999441749e+02 -4.9005521662766071e-11 -1.4322493858212269e-10  1.9999999999445578e+02 6.7105174251928784e-11 -3.9324826056933297e-11  1.9999999999468793e+02 1.3432229096568536e-10 8.0623546002884709e-11  1.9999999999450179e+02 4.0557648230638660e-11 6.9531761248815442e-12  1.9999999999532852e+02 -7.9571863044707780e-11 -1.7622132292289943e-10  1.9999999999536269e+02 -1.4795955861999254e-10 -1.5115527329687363e-10  1.9999999999548885e+02 4.4056751179211212e-11 -1.3551874395922420e-12  1.9999999999896590e+02 -5.7274947426718696e-11 -7.7794343989952984e-11  1.9999999999900410e+02 -1.0477690644862770e-10 -1.6540567036378061e-10  1.9999999999955639e+02 -3.4182152656061796e-12 -3.0000972500277780e-11  2.0000000000002160e+02 -4.2359955733917223e-11 -8.7485408503185649e-11  2.0000000000057622e+02 1.2199887079298889e-10 1.1483145769393070e-10  2.0000000000002149e+02 -7.0328550435560231e-11 -4.3547617826703648e-11  1.9999999999539020e+02 -5.4050545395676089e-11 -8.9838050568575876e-11  1.9999999999444120e+02 -8.7377358038366588e-11 -1.7080239432027515e-10  1.9999999999904131e+02 -9.9796756705631380e-11 -1.2284179908090048e-10  1.9999999999819926e+02 7.7499956636665257e-11 -2.2890462288430118e-10  1.9999999999815543e+02 1.0032084300279561e-10 -7.2587149433490508e-11  1.9999999999822487e+02 8.1999554442115697e-11 1.4159678585794895e-10  1.9999999999898805e+02 -3.8781117737965137e-10 -5.6081562894237914e-11  1.9999999999825863e+02 1.0345717289349983e-11 -3.0850028360236361e-11  1.9999999999823117e+02 5.4570462392216320e-10 1.2855799205076927e-10  1.9999999999822552e+02 -4.7177999506603064e-11 -5.3350794570172024e-11  2.0000000000007302e+02 2.6894341163096502e-11 -6.6438081331976249e-11  2.0000000000052918e+02 5.1120266796487922e-10 1.3249603123774512e-10  1.9999999999910418e+02 -1.1529344220846928e-10 -1.8099826586117693e-10  1.9999999999903628e+02 1.5388602484091109e-11 -3.1383050313349828e-11  1.9999999999902300e+02 -6.8516746493657947e-11 -2.2243553031911522e-10  1.9999999999959670e+02 -1.2129000264471061e-10 -9.7359377448791658e-11  1.9999999999991266e+02 -3.8310910739139512e-11 -4.6511854641751147e-11  2.0000000000055553e+02 1.5783553411858778e-10 1.2265259314409879e-10  1.9999999999899563e+02 4.6839872531875448e-11 -4.6755570766190502e-11  2.0000000000001799e+02 -5.3664424083254326e-11 -8.3473262092736052e-11  1.9999999999719839e+02 -7.7040869261286933e-11 -8.2041690866726620e-11  1.9999999999619573e+02 1.6014404752724871e-11 -1.5381345639315961e-10  1.9999999999629475e+02 2.8846292595205514e-11 -1.0135937468335686e-12  1.9999999999651126e+02 9.6285489781485693e-11 1.2916552124760959e-10  1.9999999999718125e+02 -4.5040044944462810e-10 -3.5359899352813225e-11  1.9999999999630887e+02 1.8905351237682915e-11 -2.7895472840735452e-11  1.9999999999647824e+02 5.1117954882165955e-10 1.2389278176228415e-10  1.9999999999637058e+02 -2.3178137686381297e-11 -1.3906302193118699e-11  1.9999999999711810e+02 -3.5025639689556225e-11 -1.8915338770915444e-10  1.9999999999720308e+02 7.9031759328766926e-11 -1.2132052972507736e-10  1.9999999999710366e+02 -2.3589308251161629e-11 -2.1654371012151006e-10  1.9999999999724341e+02 5.9829217750940289e-11 -1.0612931438400687e-10  1.9999999999535135e+02 -4.7515443867447294e-11 -9.6292593077787059e-11  1.9999999999436662e+02 -2.2108509979416442e-11 -1.3145429196503582e-10  1.9999999999445430e+02 4.5458398941205828e-11 -2.1636520963415715e-11  1.9999999999466792e+02 9.6846677911576902e-11 1.3914479542862179e-10  1.9999999999537863e+02 -3.9958068625407677e-10 -3.0186059484586573e-11  1.9999999999446337e+02 6.3968767237314621e-11 -6.5842140557883831e-12  1.9999999999465251e+02 5.5079173546655385e-10 1.1575019902721047e-10  1.9999999999440169e+02 -8.6671570046014194e-11 6.5679612607039568e-11  1.9999999999536197e+02 -1.6030874547818785e-12 -1.5657529828717028e-10  1.9999999999541458e+02 6.1777282973450011e-12 -4.2087330875597022e-11  1.9999999999522703e+02 -2.2478309574901501e-11 -2.1328972745307970e-10  1.9999999999536504e+02 2.1154915411760305e-11 -5.9933693750866363e-11  1.9999999999894891e+02 -7.3858418662860611e-11 -1.0194001019559555e-10  1.9999999999810879e+02 -1.7440573034080658e-10 -2.2488851814436558e-10  1.9999999999815191e+02 6.3857049836032178e-12 -9.6979151962616295e-12  1.9999999999819954e+02 1.8304200437955621e-10 1.3329982669379090e-10  1.9999999999816799e+02 4.5291762811545479e-11 -7.6333210999690048e-11  1.9999999999901010e+02 -7.5461035152057006e-11 -1.8205429399904517e-10  1.9999999999903198e+02 -1.2754826384815008e-10 -1.2575386597615039e-10  1.9999999999966479e+02 -1.7476704704245807e-11 -8.9715633415100009e-11  2.0000000000008501e+02 -6.5714175273828251e-12 -8.3450622813593709e-11  2.0000000000057287e+02 1.6723886846969083e-10 1.2968019525729587e-10  1.9999999999895567e+02 7.7001334518329441e-11 2.2970687687194076e-11  2.0000000000003490e+02 -1.9445550344674601e-11 -6.2747484324839693e-11  1.9999999999718068e+02 -5.5948122948619172e-11 -4.9332691460643165e-11  1.9999999999622361e+02 -1.0933056009501450e-10 -1.0921300065751040e-10  1.9999999999639303e+02 1.0965836718801846e-10 -1.0904368744782847e-11  1.9999999999644686e+02 9.9833840693016492e-11 1.0403120658145747e-10  1.9999999999638482e+02 5.1862436098539474e-12 2.7181240152868340e-11  1.9999999999716613e+02 -5.5847004034183461e-11 -1.8055761842812258e-10  1.9999999999714248e+02 -1.2902514538477609e-10 -1.0032340725729943e-10  1.9999999999724230e+02 1.9553125244231797e-11 -1.4295767013907776e-11  1.9999999999536308e+02 -7.6304468503661245e-11 -9.5165530167708631e-11  1.9999999999449713e+02 -4.8259663085987741e-11 -1.1406168673003159e-10  1.9999999999450972e+02 5.4882380199819422e-11 1.9339447375726494e-11  1.9999999999468159e+02 1.0716122701065191e-10 6.6546315270095516e-11  1.9999999999452027e+02 7.7848084101698716e-11 3.4801107502001553e-12  1.9999999999532659e+02 -5.6383377556728852e-11 -1.2135168291765952e-10  1.9999999999535498e+02 -1.0700301632797025e-10 -1.0652256827087083e-10  1.9999999999546310e+02 5.5332595712204986e-11 -1.5571306013522612e-11  1.9999999999897798e+02 -3.3863625591315462e-11 -8.9015234358795686e-11  1.9999999999812206e+02 -1.8638106958751578e-10 -2.2233003763526611e-10  1.9999999999815444e+02 -1.5433283846224883e-11 -7.1050956709464590e-11  1.9999999999817632e+02 1.4849141329215802e-10 1.1723841992297423e-10  1.9999999999903554e+02 -1.1570710210643981e-10 -2.0522104231343281e-10  1.9999999999958084e+02 -3.9551511577910751e-11 -7.9612022534349565e-11  2.0000000000007810e+02 -5.0841414761939673e-11 -8.9877864225424901e-11  2.0000000000058807e+02 1.5355434268159516e-10 1.2520486321982492e-10  2.0000000000002385e+02 -7.0105687663479478e-11 -6.6368131332214810e-11  1.9999999999715141e+02 -3.8410410957755619e-11 -1.0165127939497599e-10  1.9999999999714800e+02 -9.2599330147363231e-11 -1.8371287494078241e-10  1.9999999999535666e+02 -6.4476129908840117e-11 -1.0674256189425353e-10  1.9999999999440672e+02 -6.3538369982341203e-11 -1.1592308307895067e-10  1.9999999999447346e+02 2.4298091006812077e-11 -3.3929863398318611e-11  1.9999999999466016e+02 8.3789725428626232e-11 7.5868649619945433e-11  1.9999999999537624e+02 -6.5650838574976132e-11 -2.3591165024854283e-10  1.9999999999906916e+02 -1.2657746376927940e-10 -1.5135863838627805e-10  1.9999999999814221e+02 7.4000915888423677e-11 -2.7035715907662557e-10  1.9999999999815890e+02 7.2206827179434111e-11 -6.9370954199611409e-11  1.9999999999825070e+02 1.0445390748091527e-10 1.4234577606151737e-10  1.9999999999899461e+02 -3.8076484208002055e-10 -1.4034358416722966e-10  1.9999999999820955e+02 1.3720606503956896e-11 -9.4448573752100586e-11  1.9999999999822637e+02 5.7778151922563341e-10 1.5067707671414525e-10  1.9999999999821111e+02 -2.5688716453410137e-11 -4.6500175713890362e-11  1.9999999999999551e+02 3.4681373393985151e-11 -1.4051498859859698e-10  2.0000000000054419e+02 5.8823445043794138e-10 1.2486307620627035e-10  1.9999999999911063e+02 -1.1744003420615230e-10 -1.9774685123828686e-10  1.9999999999906416e+02 1.0727703127885847e-10 -3.0695115385276049e-11  1.9999999999903324e+02 -9.1591211525275417e-11 -1.6785248113359494e-10  1.9999999999959329e+02 -1.4450446523083569e-10 -1.4459397384291664e-10  1.9999999999998300e+02 -8.4443328947041839e-11 -1.9983822044042347e-11  2.0000000000058051e+02 1.9415793514157910e-10 1.1078584442249108e-10  1.9999999999902457e+02 5.8487381985656143e-11 -1.1632230056694485e-10  2.0000000000004763e+02 -2.9859514754777886e-11 -1.5058093819026040e-10  1.9999999999719824e+02 -9.4738182353402058e-11 -1.0058491804526664e-10  1.9999999999620232e+02 -2.5585211346064416e-11 -1.2291913330046918e-10  1.9999999999632109e+02 8.1791192752724534e-11 -8.1828376869595988e-11  1.9999999999653738e+02 8.0848312059213665e-11 1.2618501444033935e-10  1.9999999999726347e+02 -4.0513725145482072e-10 -8.8050896905117773e-11  1.9999999999631393e+02 3.6460375569211200e-11 -1.7865398580849294e-11  1.9999999999649455e+02 5.4448994946901791e-10 8.2595558563077119e-11  1.9999999999641526e+02 -1.1985531873143279e-10 4.1376452584128347e-11  1.9999999999716201e+02 -6.1819072776688691e-12 -1.5309218880988787e-10  1.9999999999725188e+02 2.2579303793065619e-11 -5.1465136414584262e-11  1.9999999999709803e+02 2.2278920409671822e-11 -2.0980129924454669e-10  1.9999999999717710e+02 8.2949666602995289e-11 -8.3911048725291537e-11  1.9999999999539963e+02 -7.2016501479759821e-11 -7.5478139227416145e-11  1.9999999999434229e+02 7.2286227434715654e-12 -1.2249548702234926e-10  1.9999999999445436e+02 2.3818458720610624e-11 1.6721532980577018e-11  1.9999999999467971e+02 7.1662357036534782e-11 9.8676000772016487e-11  1.9999999999538409e+02 -4.1632333980166453e-10 -5.7585801113397936e-11  1.9999999999443489e+02 4.8959671980863147e-11 -1.5792142588558732e-11  1.9999999999464612e+02 5.5546681931447453e-10 8.0297717867050502e-11  1.9999999999440942e+02 -4.3593924712631690e-11 1.4751674576979413e-11  1.9999999999534194e+02 -1.9788481916339541e-11 -2.0776602953912186e-10  1.9999999999535831e+02 6.9092148182089714e-11 -1.2579943089598375e-10  1.9999999999525531e+02 8.2120648971409953e-12 -1.8212475992588637e-10  1.9999999999538977e+02 4.3553473102167671e-11 -1.2056892673313017e-10  1.9999999999894229e+02 -2.7561077852307527e-11 -8.9016048959401737e-11  1.9999999999809776e+02 -1.3093044561652948e-10 -2.2970630535363189e-10  1.9999999999814872e+02 9.0294961790991445e-12 -2.6845411991632352e-11  1.9999999999816990e+02 1.6657545859373485e-10 9.4326624598198551e-11  1.9999999999820503e+02 3.6928391100908555e-11 -8.9616634330764277e-11  1.9999999999901962e+02 -7.3241114447830705e-11 -2.3217578867554938e-10  1.9999999999904301e+02 -1.1985651709897564e-10 -1.2458190401060002e-10  1.9999999999959232e+02 2