<?xml version="1.0"?>
<VTKFile type="UnstructuredGrid"  version="0.1"  >
<UnstructuredGrid>
<Piece  NumberOfPoints="3936" NumberOfCells="19236">
<Points>
<DataArray  type="Float64"  NumberOfComponents="3"  format="ascii">12.5 27.5 37.5  12.5 28.75 38.75  12.5 27.5 38.75  11.25 28.75 38.75  11.25 27.5 38.75  12.5 27.5 40  12.5 28.75 40  11.25 28.75 40  11.25 27.5 40  12.5 28.75 41.25  11.25 28.75 41.25  12.5 27.5 41.25  11.25 27.5 41.25  12.5 27.5 42.5  12.5 28.75 42.5  12.5 30 42.5  10 27.5 42.5  11.25 28.75 42.5  11.25 27.5 42.5  10 28.75 42.5  10 30 42.5  11.25 30 42.5  10 28.75 43.75  8.75 28.75 43.75  10 30 43.75  10 30 45  10 27.5 43.75  8.75 27.5 43.75  10 27.5 45  10 28.75 45  8.75 28.75 45  8.75 27.5 45  7.5 30 45  8.75 30 45  11.25 28.75 43.75  12.5 28.75 43.75  12.5 30 43.75  12.5 30 45  11.25 27.5 43.75  12.5 27.5 43.75  12.5 27.5 45  12.5 28.75 45  11.25 28.75 45  11.25 27.5 45  11.25 30 43.75  11.25 30 45  11.25 31.25 43.75  12.5 31.25 43.75  11.25 31.25 45  10 28.75 46.25  8.75 28.75 46.25  10 30 46.25  10 30 47.5  10 27.5 46.25  8.75 27.5 46.25  10 27.5 47.5  10 28.75 47.5  7.5 27.5 47.5  8.75 28.75 47.5  8.75 27.5 47.5  8.75 30 46.25  7.5 28.75 47.5  7.5 30 47.5  8.75 30 47.5  7.5 30 46.25  11.25 28.75 46.25  12.5 28.75 46.25  12.5 30 46.25  12.5 30 47.5  11.25 27.5 46.25  12.5 27.5 46.25  12.5 27.5 47.5  12.5 28.75 47.5  11.25 28.75 47.5  11.25 27.5 47.5  11.25 30 46.25  11.25 30 47.5  8.75 31.25 46.25  10 31.25 46.25  10 31.25 47.5  8.75 31.25 47.5  11.25 31.25 46.25  12.5 31.25 46.25  12.5 31.25 47.5  12.5 32.5 47.5  11.25 31.25 47.5  8.75 28.75 48.75  10 28.75 48.75  10 30 48.75  10 30 50  8.75 30 48.75  7.5 30 50  8.75 30 50  11.25 28.75 48.75  12.5 28.75 48.75  12.5 30 48.75  12.5 30 50  11.25 30 48.75  11.25 30 50  13.75 28.75 48.75  13.75 30 48.75  13.75 30 50  15 30 50  8.75 31.25 48.75  10 31.25 48.75  10 31.25 50  10 32.5 50  8.75 31.25 50  7.5 31.25 50  7.5 32.5 50  8.75 32.5 50  11.25 31.25 48.75  12.5 31.25 48.75  12.5 31.25 50  12.5 32.5 50  11.25 31.25 50  11.25 32.5 50  13.75 31.25 48.75  13.75 31.25 50  15 31.25 50  15 32.5 50  13.75 32.5 50  17.5 27.5 27.5  18.75 28.75 28.75  18.75 27.5 28.75  18.75 27.5 27.5  20 27.5 27.5  20 27.5 28.75  20 27.5 30  17.5 27.5 28.75  17.5 27.5 30  18.75 27.5 30  21.25 28.75 28.75  21.25 27.5 28.75  21.25 27.5 27.5  22.5 27.5 27.5  22.5 27.5 28.75  22.5 27.5 30  21.25 27.5 30  21.25 28.75 31.25  21.25 27.5 31.25  22.5 28.75 31.25  22.5 27.5 31.25  22.5 27.5 32.5  22.5 28.75 32.5  22.5 30 32.5  20 27.5 31.25  20 27.5 32.5  21.25 28.75 32.5  21.25 27.5 32.5  23.75 28.75 31.25  23.75 28.75 30  23.75 27.5 30  25 27.5 30  23.75 27.5 31.25  25 27.5 31.25  25 27.5 32.5  23.75 28.75 32.5  23.75 27.5 32.5  15 27.5 32.5  15 28.75 33.75  15 27.5 33.75  13.75 28.75 33.75  13.75 27.5 33.75  13.75 27.5 32.5  15 27.5 35  12.5 27.5 35  13.75 27.5 35  16.25 28.75 33.75  16.25 27.5 33.75  16.25 27.5 32.5  17.5 27.5 32.5  17.5 28.75 33.75  17.5 27.5 33.75  17.5 27.5 35  16.25 28.75 35  16.25 27.5 35  18.75 28.75 33.75  18.75 27.5 33.75  18.75 27.5 32.5  20 28.75 33.75  20 27.5 33.75  20 27.5 35  20 28.75 35  18.75 28.75 35  18.75 27.5 35  21.25 28.75 33.75  22.5 28.75 33.75  21.25 27.5 33.75  22.5 27.5 33.75  22.5 27.5 35  22.5 28.75 35  21.25 28.75 35  21.25 27.5 35  23.75 28.75 33.75  23.75 27.5 33.75  25 27.5 33.75  25 27.5 35  23.75 28.75 35  23.75 27.5 35  25 28.75 35  25 30 35  13.75 28.75 36.25  13.75 27.5 36.25  15 28.75 36.25  15 27.5 36.25  15 27.5 37.5  15 28.75 37.5  15 30 37.5  12.5 27.5 36.25  13.75 27.5 37.5  12.5 28.75 36.25  16.25 28.75 36.25  16.25 27.5 36.25  17.5 28.75 36.25  17.5 27.5 36.25  17.5 27.5 37.5  17.5 28.75 37.5  17.5 30 37.5  16.25 28.75 37.5  16.25 27.5 37.5  16.25 30 37.5  18.75 28.75 36.25  20 28.75 36.25  18.75 27.5 36.25  20 27.5 36.25  20 27.5 37.5  20 28.75 37.5  20 30 37.5  18.75 28.75 37.5  18.75 27.5 37.5  18.75 30 37.5  21.25 28.75 36.25  22.5 28.75 36.25  21.25 27.5 36.25  22.5 27.5 36.25  22.5 27.5 37.5  22.5 28.75 37.5  22.5 30 37.5  21.25 28.75 37.5  21.25 27.5 37.5  23.75 28.75 36.25  23.75 27.5 36.25  25 27.5 36.25  25 27.5 37.5  23.75 28.75 37.5  23.75 27.5 37.5  25 28.75 37.5  25 30 37.5  23.75 30 37.5  15 28.75 38.75  13.75 28.75 38.75  13.75 27.5 38.75  15 27.5 38.75  15 27.5 40  15 28.75 40  15 30 40  13.75 28.75 40  13.75 27.5 40  16.25 28.75 38.75  17.5 28.75 38.75  17.5 30 38.75  17.5 30 40  16.25 27.5 38.75  17.5 27.5 38.75  17.5 27.5 40  17.5 28.75 40  16.25 28.75 40  16.25 27.5 40  16.25 30 40  18.75 28.75 38.75  20 28.75 38.75  20 30 38.75  20 30 40  18.75 27.5 38.75  20 27.5 38.75  20 27.5 40  20 28.75 40  18.75 28.75 40  18.75 27.5 40  18.75 30 38.75  18.75 30 40  21.25 28.75 38.75  22.5 28.75 38.75  22.5 30 38.75  22.5 30 40  21.25 27.5 38.75  22.5 27.5 38.75  22.5 27.5 40  22.5 28.75 40  21.25 28.75 40  21.25 27.5 40  21.25 30 40  23.75 28.75 38.75  25 28.75 38.75  25 30 38.75  25 30 40  23.75 27.5 38.75  25 27.5 38.75  25 27.5 40  25 28.75 40  23.75 28.75 40  23.75 27.5 40  23.75 30 38.75  23.75 30 40  26.25 28.75 38.75  18.75 31.25 38.75  23.75 31.25 38.75  13.75 28.75 41.25  15 28.75 41.25  15 30 41.25  15 30 42.5  13.75 27.5 41.25  15 27.5 41.25  15 27.5 42.5  15 28.75 42.5  13.75 28.75 42.5  13.75 27.5 42.5  13.75 30 42.5  16.25 28.75 41.25  17.5 28.75 41.25  17.5 30 41.25  17.5 30 42.5  16.25 27.5 41.25  17.5 27.5 41.25  17.5 27.5 42.5  17.5 28.75 42.5  16.25 28.75 42.5  16.25 27.5 42.5  16.25 30 41.25  16.25 30 42.5  18.75 28.75 41.25  20 28.75 41.25  20 30 41.25  20 30 42.5  18.75 27.5 41.25  20 27.5 41.25  20 27.5 42.5  20 28.75 42.5  18.75 28.75 42.5  18.75 27.5 42.5  18.75 30 41.25  18.75 30 42.5  21.25 28.75 41.25  22.5 28.75 41.25  22.5 30 41.25  22.5 30 42.5  21.25 27.5 41.25  22.5 27.5 41.25  22.5 27.5 42.5  22.5 28.75 42.5  21.25 28.75 42.5  21.25 27.5 42.5  21.25 30 41.25  21.25 30 42.5  23.75 28.75 41.25  25 28.75 41.25  25 30 41.25  25 30 42.5  23.75 27.5 41.25  25 27.5 41.25  25 27.5 42.5  25 28.75 42.5  23.75 28.75 42.5  23.75 27.5 42.5  23.75 30 41.25  23.75 30 42.5  26.25 28.75 41.25  16.25 31.25 41.25  17.5 31.25 41.25  17.5 31.25 42.5  17.5 32.5 42.5  16.25 31.25 42.5  18.75 31.25 41.25  18.75 31.25 42.5  21.25 31.25 41.25  13.75 28.75 43.75  15 28.75 43.75  15 30 43.75  15 30 45  13.75 27.5 43.75  15 27.5 43.75  15 27.5 45  15 28.75 45  13.75 28.75 45  13.75 27.5 45  13.75 30 43.75  13.75 30 45  16.25 28.75 43.75  17.5 28.75 43.75  17.5 30 43.75  17.5 30 45  16.25 27.5 43.75  17.5 27.5 43.75  17.5 27.5 45  17.5 28.75 45  16.25 28.75 45  16.25 27.5 45  16.25 30 43.75  16.25 30 45  18.75 28.75 43.75  20 28.75 43.75  20 30 43.75  20 30 45  18.75 27.5 43.75  20 27.5 43.75  20 27.5 45  20 28.75 45  18.75 28.75 45  18.75 27.5 45  18.75 30 43.75  18.75 30 45  21.25 28.75 43.75  22.5 28.75 43.75  22.5 30 43.75  22.5 30 45  21.25 27.5 43.75  22.5 27.5 43.75  22.5 27.5 45  22.5 28.75 45  21.25 28.75 45  21.25 27.5 45  21.25 30 43.75  21.25 30 45  23.75 28.75 43.75  23.75 27.5 43.75  25 27.5 43.75  25 27.5 45  23.75 28.75 45  23.75 27.5 45  25 28.75 45  25 30 45  23.75 30 43.75  25 30 43.75  23.75 30 45  13.75 31.25 43.75  13.75 31.25 45  16.25 31.25 43.75  17.5 31.25 43.75  17.5 31.25 45  17.5 32.5 45  16.25 31.25 45  18.75 31.25 43.75  20 31.25 43.75  20 31.25 45  20 32.5 45  18.75 31.25 45  21.25 31.25 43.75  21.25 31.25 45  13.75 28.75 46.25  15 28.75 46.25  15 30 46.25  15 30 47.5  13.75 27.5 46.25  15 27.5 46.25  15 27.5 47.5  15 28.75 47.5  13.75 28.75 47.5  13.75 27.5 47.5  13.75 30 46.25  13.75 30 47.5  16.25 28.75 46.25  17.5 28.75 46.25  17.5 30 46.25  17.5 30 47.5  16.25 27.5 46.25  17.5 27.5 46.25  17.5 27.5 47.5  17.5 28.75 47.5  16.25 28.75 47.5  16.25 27.5 47.5  16.25 30 46.25  16.25 30 47.5  18.75 28.75 46.25  20 28.75 46.25  20 30 46.25  20 30 47.5  18.75 27.5 46.25  20 27.5 46.25  20 27.5 47.5  20 28.75 47.5  18.75 28.75 47.5  18.75 27.5 47.5  18.75 30 46.25  18.75 30 47.5  21.25 28.75 46.25  22.5 28.75 46.25  22.5 30 46.25  22.5 30 47.5  21.25 27.5 46.25  22.5 27.5 46.25  22.5 27.5 47.5  22.5 28.75 47.5  21.25 28.75 47.5  21.25 27.5 47.5  21.25 30 46.25  21.25 30 47.5  23.75 28.75 46.25  25 28.75 46.25  25 30 46.25  25 30 47.5  23.75 27.5 46.25  25 27.5 46.25  25 27.5 47.5  25 28.75 47.5  23.75 28.75 47.5  23.75 27.5 47.5  23.75 30 47.5  13.75 31.25 46.25  15 31.25 46.25  15 31.25 47.5  15 32.5 47.5  13.75 31.25 47.5  16.25 31.25 46.25  17.5 31.25 46.25  17.5 32.5 46.25  17.5 32.5 47.5  17.5 31.25 47.5  16.25 31.25 47.5  16.25 32.5 47.5  18.75 31.25 46.25  20 31.25 46.25  20 32.5 46.25  20 32.5 47.5  20 31.25 47.5  18.75 31.25 47.5  18.75 32.5 47.5  21.25 31.25 46.25  21.25 31.25 47.5  15 28.75 48.75  15 30 48.75  16.25 28.75 48.75  17.5 28.75 48.75  17.5 30 48.75  17.5 30 50  16.25 30 48.75  16.25 30 50  18.75 28.75 48.75  20 28.75 48.75  20 30 48.75  20 30 50  18.75 30 48.75  18.75 30 50  21.25 28.75 48.75  22.5 28.75 48.75  22.5 30 48.75  22.5 30 50  21.25 30 48.75  21.25 30 50  23.75 28.75 48.75  15 31.25 48.75  15 32.5 48.75  16.25 31.25 48.75  17.5 31.25 48.75  17.5 32.5 48.75  17.5 32.5 50  17.5 31.25 50  16.25 31.25 50  16.25 32.5 48.75  16.25 32.5 50  18.75 31.25 48.75  20 31.25 48.75  18.75 31.25 50  21.25 31.25 48.75  21.25 31.25 50  16.25 33.75 48.75  16.25 33.75 50  10 22.5 45  11.25 22.5 45  11.25 21.25 45  11.25 21.25 43.75  12.5 22.5 45  11.25 22.5 43.75  11.25 23.75 45  11.25 23.75 43.75  12.5 23.75 45  12.5 25 45  10 23.75 45  10 25 45  11.25 25 45  10 26.25 43.75  8.75 26.25 43.75  10 25 42.5  10 25 43.75  10 26.25 45  8.75 26.25 45  11.25 22.5 46.25  11.25 21.25 46.25  12.5 22.5 46.25  12.5 22.5 47.5  10 22.5 47.5  11.25 22.5 47.5  11.25 21.25 47.5  10 22.5 46.25  10 23.75 46.25  8.75 23.75 46.25  10 25 46.25  10 25 47.5  10 23.75 47.5  8.75 25 46.25  11.25 23.75 46.25  12.5 23.75 46.25  12.5 25 46.25  12.5 25 47.5  12.5 23.75 47.5  11.25 23.75 47.5  11.25 25 46.25  11.25 25 47.5  10 26.25 46.25  8.75 26.25 46.25  10 26.25 47.5  8.75 26.25 47.5  11.25 26.25 46.25  11.25 26.25 47.5  12.5 26.25 47.5  11.25 22.5 48.75  11.25 21.25 48.75  12.5 22
[...]
<PointData  Vectors="u"> 
<DataArray  type="Float64"  Name="u"  NumberOfComponents="3" format="ascii">1.9999999999104443e+02 -1.2043637218430318e-10 7.8675306781526199e-11  1.9999999999080299e+02 -9.2216271433250598e-11 -1.8836972331614899e-10  1.9999999999088163e+02 7.4718151565041480e-11 -6.2955857291354933e-11  1.9999999999170643e+02 -5.5227613646883594e-11 -1.3946374806187192e-10  1.9999999999169006e+02 -5.1118069637984596e-11 -1.4666219835023050e-10  1.9999999999105825e+02 -1.7052071879162850e-10 6.6811710508346577e-11  1.9999999999088527e+02 -1.3745048648322743e-11 2.8105317001129565e-11  1.9999999999165104e+02 2.0360814467376943e-11 -1.9596192116921081e-10  1.9999999999176123e+02 -1.1896274395427595e-11 -1.5312617872506082e-10  1.9999999999090912e+02 6.3416663169823752e-11 -1.5222234275753951e-10  1.9999999999170589e+02 -1.6986121974900799e-11 -9.1790922788010654e-11  1.9999999999089343e+02 8.0465853053951303e-11 -5.6453608428933316e-11  1.9999999999163646e+02 -7.3852127845836394e-11 -1.3856885493598941e-10  1.9999999999105938e+02 -1.2542202723232071e-10 1.3918248208505710e-10  1.9999999999088431e+02 -1.6939059539407220e-12 7.5877602830851303e-11  1.9999999999111492e+02 -3.3966362933687631e-12 1.3155601968397243e-10  1.9999999999286348e+02 -1.7459056070787961e-10 7.1696944255845841e-11  1.9999999999172840e+02 2.4442710011649154e-11 -2.1358777422945580e-10  1.9999999999180432e+02 9.8183128947063261e-13 -1.2944083990580555e-10  1.9999999999275019e+02 -2.3089142074234416e-11 -7.1452386820354599e-12  1.9999999999289562e+02 -3.1081195577555381e-11 1.2334091855580833e-10  1.9999999999182276e+02 -4.7509019824738822e-11 -7.4864202570650123e-11  1.9999999999255675e+02 5.1889654670215545e-11 -1.5848013371852808e-10  1.9999999999352968e+02 -3.5620468176181801e-11 -1.2687117499774584e-10  1.9999999999269053e+02 -3.3849690719130727e-11 -3.7633732990089639e-11  1.9999999999290051e+02 -9.3827885958025478e-12 1.1836006123656344e-10  1.9999999999265478e+02 6.1790692429733976e-11 -6.3087162665430318e-11  1.9999999999346733e+02 6.4765658358223262e-14 -1.8738246923313858e-10  1.9999999999287201e+02 -1.4161794563889546e-10 9.6917126859030254e-11  1.9999999999276275e+02 2.4849501206666757e-12 -8.2772026341757944e-12  1.9999999999348208e+02 7.1155005277322235e-11 -1.8812288816243067e-10  1.9999999999360972e+02 7.3381600992375369e-11 -1.1288376273163981e-10  1.9999999999467326e+02 -3.6299323282107638e-11 1.2966846828649804e-10  1.9999999999360099e+02 -2.0189223184793087e-11 -5.5583463601917598e-11  1.9999999999179323e+02 -2.0332885321059269e-11 -9.9869356625287231e-11  1.9999999999079373e+02 4.5320862329008218e-11 -1.6815941777636997e-10  1.9999999999088732e+02 -4.8648541745159990e-12 -2.5801415433766944e-11  1.9999999999110653e+02 2.0655383775012089e-11 1.1228351983028263e-10  1.9999999999170456e+02 -1.0305669252888662e-11 -1.9144658611901038e-10  1.9999999999087285e+02 1.0100858376786636e-10 -9.0632712754080493e-11  1.9999999999106183e+02 -1.2279417286498701e-10 1.0657620569893117e-10  1.9999999999087996e+02 8.4474627364020567e-12 3.8985547022189848e-12  1.9999999999171470e+02 7.5710129293858504e-11 -2.0400573407209203e-10  1.9999999999181080e+02 5.6335816693596150e-11 -6.4062933785409481e-11  1.9999999999165780e+02 -1.2080759250361498e-11 -2.1135011126613499e-10  1.9999999999179255e+02 -6.7064782211531841e-12 -1.0475057940552181e-10  1.9999999999178522e+02 -8.3633428804253080e-11 -5.9657943866058785e-11  1.9999999999081732e+02 -1.0277043904750931e-10 -1.2313954497256939e-10  1.9999999999174267e+02 -1.2004203102471432e-10 -2.2531422396810736e-10  1.9999999999259200e+02 6.1102942371961285e-11 -1.3556443313646163e-10  1.9999999999350473e+02 -1.6787925931354729e-11 -7.8320500331917438e-11  1.9999999999265853e+02 -2.8390834791676481e-11 -9.6250229323178470e-11  1.9999999999287078e+02 -1.5267600125071899e-11 1.0759169400397425e-10  1.9999999999272850e+02 6.0097587467554278e-11 -8.3326196798644807e-11  1.9999999999346355e+02 5.2536569358614659e-11 -1.2605784834580704e-10  1.9999999999283312e+02 -6.9789058623929694e-11 6.8277367152469415e-11  1.9999999999273723e+02 -1.1537572516379830e-11 9.3547430311966369e-12  1.9999999999461070e+02 -1.0599896281893414e-10 6.4709481358514288e-11  1.9999999999351886e+02 6.2534239860862025e-11 -1.5372786730279188e-10  1.9999999999358357e+02 1.2264968562977595e-10 -8.9288833257289981e-11  1.9999999999344340e+02 -4.2443525413291769e-11 -2.3450394094457532e-10  1.9999999999452800e+02 2.5958991714344568e-12 -1.1381069110932543e-11  1.9999999999468537e+02 -3.4374288679722434e-11 1.0515271534906181e-10  1.9999999999357044e+02 -3.3214625194011124e-11 -1.1178296119873416e-10  1.9999999999442574e+02 -7.1232704290527796e-11 -4.1253360666059537e-11  1.9999999999177902e+02 -6.1474160544211075e-11 -9.3455567939080210e-11  1.9999999999079000e+02 4.9203573385071888e-11 -1.3868722415144918e-10  1.9999999999093589e+02 1.7955198115035742e-12 -1.2730602423684285e-10  1.9999999999110170e+02 -1.1343050695982836e-11 7.3355265571846352e-11  1.9999999999170120e+02 5.4034636158400836e-11 -1.7643064058698689e-10  1.9999999999088610e+02 5.5895258063652522e-11 -2.4974777884153699e-11  1.9999999999105862e+02 -8.1899713548011232e-11 1.2405794364883053e-11  1.9999999999088669e+02 -4.5665357737935486e-11 -3.0975088857011499e-11  1.9999999999171635e+02 1.3821829302271926e-11 -1.5746832170953300e-10  1.9999999999183294e+02 1.4933810551789820e-10 -8.9628974780348742e-11  1.9999999999162910e+02 2.0953381259986653e-11 -2.6427720146085315e-10  1.9999999999176978e+02 -6.3504539203712626e-12 -7.9122376776361720e-11  1.9999999999354304e+02 -1.0514518858620355e-10 -6.8892107144002440e-11  1.9999999999257349e+02 -8.8788113128106276e-11 -1.1532897375500884e-10  1.9999999999273717e+02 -5.9546133828872017e-11 -3.7259518256263444e-11  1.9999999999352065e+02 -9.8047932965818586e-11 -1.7681434501792687e-10  1.9999999999177737e+02 -9.7941269978905547e-11 -1.0515109726656286e-10  1.9999999999084440e+02 -1.0708623640666045e-10 -1.6381875112416668e-10  1.9999999999087754e+02 -2.0441656920778880e-11 -2.6356465690318929e-11  1.9999999999107527e+02 8.6869023315936573e-11 4.3590565041353859e-11  1.9999999999172977e+02 -6.7343345239279397e-11 -1.6267713979963044e-10  1.9999999999352690e+02 -3.0732771875933418e-12 1.4361707254412549e-11  1.9999999999250278e+02 -5.4035568677003287e-13 7.4804672122810079e-13  1.9999999999267408e+02 -2.6218302124680051e-11 2.6027343804149905e-11  1.9999999999286425e+02 -8.0625917498653789e-12 -5.5699432053392727e-10  1.9999999999340355e+02 -2.0554692891145898e-11 -8.1287807190935922e-11  1.9999999999464387e+02 -6.1175527611548972e-12 -5.0684535613882499e-10  1.9999999999356862e+02 2.0355124750478020e-11 -3.0019881960472392e-11  1.9999999999173045e+02 -3.8692766927532932e-12 -4.2527998665383803e-13  1.9999999999073287e+02 5.7854961463608509e-12 2.9544528584522442e-11  1.9999999999085333e+02 -1.2301097411148195e-11 2.6565133318348795e-11  1.9999999999107226e+02 -8.9774000235701086e-12 -5.3518402719031662e-10  1.9999999999163995e+02 -1.6830946899320128e-11 -5.3517970962148517e-11  1.9999999999178803e+02 1.7537342165022554e-11 -5.6094767684239159e-11  1.9999999998994988e+02 1.6859030490105004e-11 6.1847809133255934e-11  1.9999999998987280e+02 4.7637787068375310e-11 9.5342074476989111e-11  1.9999999999003455e+02 1.3656957844950854e-11 -6.1906277509827108e-11  1.9999999998934643e+02 5.7618567882847642e-12 -5.6918464516466220e-10  1.9999999999353111e+02 -1.2299944151137347e-10 5.0032588623141369e-11  1.9999999999254450e+02 -8.9513231091630577e-11 2.2626106596305228e-11  1.9999999999275894e+02 -4.4763568142854978e-11 -4.5025277657540331e-11  1.9999999999281155e+02 4.0416793827475946e-11 -5.2292702748706591e-10  1.9999999999361503e+02 8.2669213598527689e-12 3.3062650187046422e-10  1.9999999999462221e+02 -6.7854496645321221e-11 1.8100939034364618e-11  1.9999999999462426e+02 9.6701789643568671e-12 -5.3576211181164425e-10  1.9999999999366398e+02 -6.0492455098040291e-12 -2.4330075229226633e-11  1.9999999999174469e+02 -1.2327382045769331e-10 2.8862539308875887e-11  1.9999999999084545e+02 -8.6714939657948705e-11 2.9982361930809744e-11  1.9999999999099970e+02 1.6150893420837832e-11 -5.4330333170033004e-11  1.9999999999102067e+02 1.3641018660660391e-11 -5.4059367407257774e-10  1.9999999999182856e+02 -2.0511410939730744e-11 2.7150487610722555e-10  1.9999999999185633e+02 5.9525523477460160e-11 -1.9583929186949373e-11  1.9999999999000781e+02 -9.5346750840689244e-11 6.0120534336624633e-11  1.9999999999006707e+02 -1.4466775830585638e-11 2.0520421516679033e-10  1.9999999998907424e+02 -5.9798315487301199e-12 4.2076634987486348e-11  1.9999999998928348e+02 -2.5777753883514158e-13 -5.7244917566916985e-10  1.9999999999006846e+02 2.1508494564444335e-11 -4.9774739807068868e-11  1.9999999998755746e+02 -1.0122034761028163e-10 1.0960793982833889e-10  1.9999999998648147e+02 -1.8364710009255321e-11 -5.2708802296676739e-11  1.9999999998646464e+02 5.1177910230580189e-11 -1.0611294604610969e-10  1.9999999998653803e+02 -1.9197108497235130e-11 -9.4694230212032406e-11  1.9999999998588513e+02 -6.4334482048977133e-11 1.1365055896326670e-10  1.9999999998568413e+02 8.8459874650623295e-11 -1.4501307528703326e-11  1.9999999998585750e+02 -1.0961239680389986e-10 1.2957442517676422e-10  1.9999999998737056e+02 7.2103431328224981e-11 -3.5737170528867171e-11  1.9999999998754589e+02 -1.2349350698182552e-10 1.4824055827788631e-10  1.9999999998657182e+02 7.1888159572100627e-11 -2.5333548445070740e-11  1.9999999998483111e+02 -9.6693816382771143e-11 -8.1342498052719201e-11  1.9999999998475977e+02 8.0759921865619076e-11 -1.2068273215278935e-10  1.9999999998486140e+02 2.4610917133317390e-11 -1.1387652115513101e-11  1.9999999998416095e+02 -1.1756750900024878e-12 1.0657367525805725e-10  1.9999999998401947e+02 1.2916134918015680e-10 -6.7731207490237144e-13  1.9999999998415674e+02 -6.2943179983199463e-11 9.9334548975086978e-11  1.9999999998485632e+02 6.6993273470710761e-11 -2.0836043195407599e-11  1.9999999998482147e+02 -9.4045678471393632e-13 -7.4413417863258605e-11  1.9999999998478566e+02 7.7305449449788989e-11 -1.0733377826752705e-10  1.9999999998386755e+02 9.3429811098070477e-11 -1.0404936211118284e-10  1.9999999998388449e+02 9.7895609647026903e-11 -3.7451178881007432e-11  1.9999999998411388e+02 -9.4128862890697748e-11 1.2347526164366826e-10  1.9999999998403757e+02 1.4178409275906456e-11 2.8604394143524108e-11  1.9999999998418102e+02 -3.3159421769411863e-11 1.2393433480040350e-10  1.9999999998568845e+02 9.8790338102755559e-11 5.4879290359870550e-12  1.9999999998584238e+02 -1.0059176454367540e-10 1.3142277347863288e-10  1.9999999998477702e+02 5.8861999479756937e-11 -1.0940955802643450e-10  1.9999999998486908e+02 1.0330814521162453e-10 -4.4701008374062633e-11  1.9999999998312222e+02 5.6999966766800690e-11 -6.2301894011826733e-11  1.9999999998306484e+02 7.5621920137988450e-11 -2.9181604035837090e-10  1.9999999998316022e+02 1.9112668748123579e-10 -1.6216594473077117e-10  1.9999999998245261e+02 1.9242170645973279e-11 6.3650516732902064e-11  1.9999999998306680e+02 8.0267863532573967e-11 -9.4854054874884934e-11  1.9999999998236723e+02 1.9267891465261010e-10 1.9020791021160192e-11  1.9999999998245121e+02 -4.8514228559016445e-11 9.0347302271495822e-11  1.9999999998311395e+02 9.6299424094407477e-11 -1.3253976987236939e-10  1.9999999998317892e+02 9.4135664294579206e-11 1.5832723398936576e-11  1.9999999998935354e+02 -1.5680045842302961e-10 9.4696374206722381e-11  1.9999999998909104e+02 3.6755637029132325e-11 -1.3151138522960356e-10  1.9999999998919529e+02 3.8819779605900890e-11 -3.0420574702456425e-11  1.9999999998998675e+02 -1.7482471999533066e-11 -7.4249135794513958e-11  1.9999999998991137e+02 -5.9045495772639796e-11 -7.8595153371237747e-11  1.9999999999007198e+02 1.3605319771460351e-11 -1.0930699897871138e-10  1.9999999998931699e+02 -1.4588964846431553e-10 1.4167563098392714e-10  1.9999999999102371e+02 -1.4120481930462837e-10 9.0943596137128147e-11  1.9999999999005513e+02 2.5942326063620947e-11 1.9479252927147501e-11  1.9999999998829293e+02 -6.6076811587251467e-11 -9.1463433644356363e-11  1.9999999998822412e+02 5.9259388465767909e-11 -1.4690868002211480e-10  1.9999999998827644e+02 2.3179650381099879e-11 -3.7103299352563930e-11  1.9999999998759213e+02 -1.3043981981040058e-10 1.3141346159796955e-10  1.9999999998731658e+02 4.1053741543548844e-11 -1.2253551975630318e-10  1.9999999998740805e+02 5.5449128126046765e-11 1.2328873370315297e-11  1.9999999998760546e+02 -1.1935459361744038e-10 1.0063675634207093e-10  1.9999999998820925e+02 8.0034133619892083e-12 -1.6683269453452476e-10  1.9999999998829460e+02 3.4540394945649012e-11 -8.6107724088120344e-11  1.9999999998649508e+02 -5.3648967227965330e-11 -8.9279999252499965e-11  1.9999999998649872e+02 4.6416508490388307e-11 -1.1582686335632384e-10  1.9999999998657955e+02 7.3861472125363888e-11 -4.4323372430727521e-11  1.9999999998563399e+02 3.0994116927476015e-11 -1.4711548483732271e-10  1.9999999998565715e+02 5.4199757653725239e-11 -5.6389460074098105e-12  1.9999999998583098e+02 -1.2183047677962023e-10 8.6027563671659227e-11  1.9999999998576575e+02 -5.4677313451773221e-11 3.4028399421026541e-11  1.9999999998646922e+02 2.2399723675082890e-11 -1.4006844783225317e-10  1.9999999998657481e+02 5.5233804976028007e-11 -6.7941653930715389e-11  1.9999999998481843e+02 -3.2609724674696755e-11 -9.2187856027291942e-11  1.9999999998385488e+02 9.1100311074933419e-11 -1.6872119738180783e-10  1.9999999998474954e+02 1.0294910536710355e-10 -1.3278201134309796e-10  1.9999999998395649e+02 8.0430393665714428e-11 -1.3515978801272505e-11  1.9999999998412557e+02 -1.2354207135723553e-10 1.0212349801417154e-10  1.9999999998403297e+02 -2.5135548503696482e-11 -6.6493718888479844e-12  1.9999999998476278e+02 4.6617916679064594e-11 -1.8526217787157625e-10  1.9999999998485836e+02 7.6751003021930481e-11 -6.9927997964143897e-11  1.9999999998312137e+02 -1.3881446077699127e-12 -1.0645859223749631e-10  1.9999999998306828e+02 6.8900086135266817e-11 -1.3329466634155281e-10  1.9999999998223373e+02 1.3668590083044243e-10 -4.0050401780552229e-12  1.9999999998241495e+02 -7.5505634720252868e-11 5.5397677704401439e-11  1.9999999998303795e+02 5.0456930877017247e-11 -2.1370077567475316e-10  1.9999999998316790e+02 4.0835261242502811e-11 -4.6010154618076478e-11  1.9999999998235666e+02 1.4341230501488324e-11 -4.2820820272931399e-11  1.9999999998248529e+02 -1.2823189419589383e-11 8.1136636020410139e-11  1.9999999998993141e+02 -7.0368866694824583e-11 -9.0602075361937729e-11  1.9999999998995855e+02 2.9292608501996607e-11 -1.9078247320136752e-10  1.9999999998906844e+02 -9.7650836774972376e-12 -1.6498549515987913e-10  1.9999999998910926e+02 6.6442416837764042e-12 -1.6241814348918884e-11  1.9999999998935252e+02 -1.6554247576651918e-10 5.7611463887929997e-11  1.9999999998923187e+02 -6.0261188226955000e-11 -1.9531492369981570e-12  1.9999999998933285e+02 -3.6086450309977528e-11 1.3290406470913653e-10  1.9999999999093723e+02 7.7136675972743053e-11 -5.6353201786560588e-11  1.9999999999006386e+02 5.3809510581178030e-11 -1.3109207858942815e-10  1.9999999999094754e+02 1.9025186255133056e-11 -5.0961094429289447e-11  1.9999999998826300e+02 -5.8387533991276647e-11 -9.7312512784040921e-11  1.9999999998821357e+02 1.7780470983406162e-11 -1.0001950586803261e-10  1.9999999998731840e+02 1.4839300846951991e-11 -1.5023454298506153e-10  1.9999999998741063e+02 5.9468042824509947e-12 -1.3925688026601084e-11  1.9999999998759171e+02 -1.7175104054407203e-10 6.6211842799399170e-11  1.9999999998746759e+02 -5.2287457258903978e-11 -4.1330140077265045e-11  1.9999999998764258e+02 -4.8325235190035826e-11 1.1599570352683931e-10  1.9999999998818953e+02 -1.4682350760007715e-11 -1.6121838548189198e-10  1.9999999998828451e+02 6.8797720526526374e-11 -1.1655208532275311e-10  1.9999999998826104e+02 -3.6087869408512974e-11 -1.0667616715728168e-10  1.9999999998652308e+02 -2.6698013054168148e-11 -1.3021322943998373e-10  1.9999999998555498e+02 4.5140779389930985e-11 -1.7802443389401620e-10  1.9999999998644486e+02 -3.1303980849179650e-11 -1.4371374937781503e-10  1.9999999998563797e+02 -8.7747265205274051e-12 -6.6995307863545476e-11  1.9999999998587600e+02 -1.7746255587941248e-10 4.2568194850689750e-11  1.9999999998571064e+02 -4.7644217303918466e-12 -4.1492719701507905e-11  1.9999999998588257e+02 -8.8394249232325545e-12 8.4312405527990163e-11  1.9999999998646166e+02 4.7600267537134288e-11 -2.1509878698441547e-10  1.9999999998649702e+02 2.3061403058069208e-11 -1.3791691136638746e-10  1.9999999998653288e+02 -6.0399410541409679e-12 -1.1039891109942436e-10  1.9999999998478805e+02 -1.1820479143575475e-11 -1.4810400436711087e-10  1.9999999998387815e+02 5.6560595532441650e-11 -1.9215742361137788e-10  1.9999999998474684e+02 1.0765717934498581e-11 -1.4738234686951565e-10  1.9999999998395253e+02 -9.3579179258757126e-12 -5.6760958003784419e-11  1.9999999998415655e+02 -1.4836459971172056e-10 6.3276441508425679e-11  1.9999999998402697e+02 1.3435867628912342e-11 -1.2031386988652091e-11  1.9999999998415501e+02 1.3001676445804707e-11 1.0498871614227338e-10  1.9999999998477153e+02 4.1598744275687675e-11 -1.5739523098932207e-10  1.9999999998485205e+02 4.2407557400045480e-11 -1.1866867840920709e-10  1.9999999998307584e+02 -4.3709000526812043e-11 -1.2240027864865767e-10  1.9999999998305131e+02 -1.3109875335977156e-11 -1.3845810372740632e-10  1.9999999998223467e+02 1.9891564492493226e-11 1.8787662720573531e-11  1.9999999998244945e+02 -1.1522105005484448e-10 3.6800464762244060e-11  1.9999999998303147e+02 1.8785070154685015e-11 -2.0532956028112310e-10  1.9999999998316451e+02 7.5648041529339775e-11 -1.0452127971769020e-10  1.9999999998237288e+02 4.4669338736728623e-12 4.9665181387345654e-11  1.9999999998249612e+02 -2.7147082128774144e-11 1.3090505535621622e-10  1.9999999998306410e+02 1.1328119487170732e-11 -1.1190170281857316e-10  1.9999999998904605e+02 4.3209114232903705e-11 -1.5619679088261669e-10  1.9999999998998234e+02 -1.8423688760084855e-11 -1.1515813977731438e-10  1.9999999998990648e+02 6.3251434331223837e-11 -1.4579866185922430e-10  1.9999999998918020e+02 5.9397343291144435e-11 -9.8185763855646110e-11  1.9999999998927231e+02 -1.0622892775344656e-10 1.0012062065840341e-10  1.9999999998926407e+02 -1.8576335818396322e-11 -8.4002868968594023e-11  1.9999999998926950e+02 -3.1023367598632081e-11 1.2905803272073616e-10  1.9999999999009918e+02 -5.9871837323145153e-11 -6.2018589520330057e-11  1.9999999999007727e+02 1.3263623627326472e-10 -5.4779634902752459e-11  1.9999999998825075e+02 -6.7773311652078750e-11 -1.2034740658448165e-10  1.9999999998727915e+02 4.3670125596173654e-11 -1.5148568352737888e-10  1.9999999998742192e+02 -2.1984198736493427e-11 -5.6113822222371433e-11  1.9999999998763224e+02 -3.1790119387752795e-11 1.0367324631001323e-10  1.9999999998821295e+02 4.8560265404058157e-11 -1.6250541233122548e-10  1.9999999998738343e+02 9.7119774745556923e-12 -9.6783968121454132e-11  1.9999999998756422e+02 -1.5411716616597556e-10 8.1447184280472883e-11  1.9999999998747327e+02 -4.7007077099301792e-12 -2.6790782154937011e-11  1.9999999998823799e+02 3.2701004601141263e-11 -2.3460053906118260e-10  1.9999999998834161e+02 4.9945564956449210e-11 -1.2015525886535907e-10  1.9999999998832237e+02 -5.4258143900462711e-11 -9.1868835184556526e-11  1.9999999998649332e+02 -2.9342355368344672e-11 -1.1524355914928921e-10  1.9999999998557891e+02 6.9068083111057048e-11 -1.7035136309514330e-10  1.9999999998568194e+02 -1.7046539959593114e-11 -8.4829329903005868e-11  1.9999999998587757e+02 -2.5169049852926576e-12 1.2417973158482058e-10  1.9999999998643594e+02 2.9701197583436824e-11 -1.6611780367170589e-10  1.9999999998565008e+02 6.1687716379173630e-11 -6.5216359062409492e-11  1.9999999998582629e+02 -1.7660570613360398e-10 9.8464912014579711e-11  1.9999999998575285e+02 5.1559445026300082e-11 -7.3452460469764284e-12  1.9999999998644856e+02 8.3772542688688844e-11 -2.1172565903291559e-10  1.9999999998656722e+02 2.7