<?xml version="1.0"?>
<VTKFile type="UnstructuredGrid"  version="0.1"  >
<UnstructuredGrid>
<Piece  NumberOfPoints="3756" NumberOfCells="18312">
<Points>
<DataArray  type="Float64"  NumberOfComponents="3"  format="ascii">12.5 42.5 30  13.75 42.5 31.25  13.75 42.5 30  13.75 41.25 31.25  13.75 41.25 30  15 42.5 30  15 42.5 31.25  15 42.5 32.5  13.75 42.5 32.5  13.75 41.25 32.5  13.75 43.75 31.25  13.75 43.75 30  15 43.75 31.25  15 43.75 30  15 45 30  15 45 31.25  15 45 32.5  15 43.75 32.5  13.75 43.75 32.5  13.75 45 31.25  13.75 45 30  13.75 45 32.5  15 46.25 31.25  15 46.25 30  13.75 46.25 31.25  13.75 46.25 30  15 47.5 30  15 47.5 31.25  15 47.5 32.5  15 46.25 32.5  13.75 46.25 32.5  13.75 47.5 31.25  13.75 47.5 30  13.75 47.5 32.5  15 48.75 31.25  13.75 48.75 31.25  15 48.75 32.5  15 50 32.5  13.75 48.75 32.5  12.5 50 32.5  13.75 50 32.5  15 42.5 33.75  13.75 42.5 33.75  13.75 41.25 33.75  15 42.5 35  15 43.75 33.75  13.75 43.75 33.75  15 45 33.75  15 45 35  15 43.75 35  13.75 43.75 35  13.75 45 33.75  13.75 45 35  15 46.25 33.75  13.75 46.25 33.75  15 47.5 33.75  15 47.5 35  15 46.25 35  13.75 46.25 35  13.75 47.5 33.75  13.75 47.5 35  15 48.75 33.75  13.75 48.75 33.75  15 50 33.75  15 50 35  15 48.75 35  13.75 48.75 35  13.75 50 33.75  12.5 50 35  13.75 50 35  12.5 50 33.75  15 42.5 36.25  13.75 42.5 36.25  13.75 41.25 36.25  15 42.5 37.5  13.75 42.5 37.5  13.75 41.25 37.5  15 43.75 36.25  13.75 43.75 36.25  15 45 36.25  15 45 37.5  15 43.75 37.5  13.75 43.75 37.5  13.75 45 36.25  15 46.25 36.25  13.75 46.25 36.25  15 47.5 36.25  15 47.5 37.5  15 46.25 37.5  13.75 47.5 36.25  15 48.75 36.25  13.75 48.75 36.25  15 50 36.25  15 50 37.5  15 48.75 37.5  13.75 50 36.25  15 42.5 38.75  13.75 42.5 38.75  13.75 41.25 38.75  15 42.5 40  15 43.75 38.75  13.75 43.75 38.75  15 45 38.75  15 45 40  15 43.75 40  17.5 50 40  16.25 50 40  16.25 48.75 40  16.25 48.75 38.75  16.25 50 38.75  17.5 50 41.25  16.25 50 41.25  16.25 48.75 41.25  17.5 50 42.5  16.25 50 42.5  16.25 48.75 42.5  15 40 42.5  15 41.25 43.75  15 41.25 42.5  13.75 41.25 43.75  15 42.5 42.5  15 42.5 43.75  15 42.5 45  15 40 43.75  15 40 45  15 41.25 45  17.5 50 43.75  16.25 50 43.75  16.25 48.75 43.75  17.5 50 45  17.5 30 27.5  17.5 30 28.75  17.5 28.75 28.75  16.25 28.75 28.75  17.5 30 30  17.5 27.5 27.5  17.5 27.5 28.75  16.25 27.5 28.75  17.5 27.5 30  17.5 28.75 30  15 27.5 30  16.25 28.75 30  16.25 27.5 30  16.25 30 28.75  15 28.75 30  15 30 30  16.25 30 30  20 27.5 27.5  20 28.75 28.75  20 28.75 27.5  18.75 28.75 28.75  20 30 27.5  20 30 28.75  20 30 30  20 27.5 28.75  20 27.5 30  20 28.75 30  18.75 28.75 30  18.75 27.5 30  18.75 30 28.75  18.75 30 30  22.5 27.5 27.5  22.5 28.75 28.75  22.5 28.75 27.5  21.25 28.75 28.75  22.5 30 27.5  22.5 30 28.75  22.5 30 30  22.5 27.5 28.75  22.5 27.5 30  22.5 28.75 30  21.25 28.75 30  21.25 27.5 30  21.25 30 28.75  21.25 30 27.5  21.25 30 30  23.75 28.75 28.75  23.75 28.75 30  23.75 30 30  25 30 30  23.75 30 28.75  17.5 32.5 27.5  17.5 32.5 28.75  17.5 31.25 28.75  16.25 31.25 28.75  17.5 32.5 30  17.5 31.25 30  16.25 31.25 30  16.25 32.5 28.75  15 31.25 30  15 32.5 30  16.25 32.5 30  20 31.25 28.75  20 31.25 27.5  18.75 31.25 28.75  20 32.5 27.5  20 32.5 28.75  20 32.5 30  20 31.25 30  18.75 31.25 30  18.75 32.5 28.75  18.75 32.5 30  21.25 31.25 28.75  22.5 31.25 28.75  22.5 31.25 30  22.5 32.5 30  21.25 31.25 30  21.25 32.5 30  21.25 32.5 28.75  23.75 31.25 28.75  23.75 31.25 30  25 31.25 30  25 32.5 30  23.75 32.5 30  17.5 33.75 28.75  17.5 33.75 27.5  16.25 33.75 28.75  17.5 35 27.5  17.5 35 28.75  17.5 35 30  17.5 33.75 30  16.25 33.75 30  16.25 35 28.75  15 33.75 30  15 35 30  16.25 35 30  20 33.75 28.75  18.75 33.75 28.75  20 33.75 30  20 35 30  18.75 33.75 30  18.75 35 30  18.75 35 28.75  21.25 33.75 28.75  21.25 33.75 30  22.5 33.75 30  22.5 35 30  21.25 35 30  15 36.25 30  15 36.25 28.75  13.75 36.25 28.75  15 37.5 30  13.75 36.25 30  13.75 35 30  12.5 37.5 30  13.75 37.5 30  13.75 37.5 28.75  17.5 36.25 28.75  16.25 36.25 28.75  17.5 36.25 30  17.5 37.5 30  16.25 36.25 30  16.25 37.5 30  18.75 36.25 28.75  18.75 36.25 30  20 36.25 30  20 37.5 30  18.75 37.5 30  13.75 38.75 30  13.75 38.75 28.75  15 38.75 30  15 40 30  13.75 40 30  15 28.75 31.25  13.75 28.75 31.25  15 30 31.25  15 30 32.5  12.5 27.5 30  13.75 27.5 31.25  13.75 27.5 30  15 27.5 31.25  15 27.5 32.5  15 28.75 32.5  12.5 27.5 31.25  12.5 27.5 32.5  13.75 28.75 32.5  13.75 27.5 32.5  13.75 30 31.25  12.5 28.75 32.5  12.5 30 32.5  13.75 30 32.5  16.25 28.75 31.25  17.5 28.75 31.25  17.5 30 31.25  17.5 30 32.5  16.25 27.5 31.25  17.5 27.5 31.25  17.5 27.5 32.5  17.5 28.75 32.5  16.25 28.75 32.5  16.25 27.5 32.5  16.25 30 31.25  16.25 30 32.5  18.75 28.75 31.25  20 28.75 31.25  20 30 31.25  20 30 32.5  18.75 27.5 31.25  20 27.5 31.25  20 27.5 32.5  20 28.75 32.5  18.75 28.75 32.5  18.75 27.5 32.5  18.75 30 31.25  18.75 30 32.5  21.25 28.75 31.25  22.5 28.75 31.25  22.5 30 31.25  22.5 30 32.5  21.25 30 31.25  21.25 28.75 32.5  21.25 30 32.5  25 27.5 30  25 28.75 31.25  25 28.75 30  23.75 28.75 31.25  25 30 31.25  25 30 32.5  25 27.5 31.25  25 27.5 32.5  25 28.75 32.5  23.75 28.75 32.5  23.75 30 31.25  23.75 30 32.5  15 31.25 31.25  13.75 31.25 31.25  15 32.5 31.25  15 32.5 32.5  15 31.25 32.5  13.75 31.25 32.5  13.75 32.5 31.25  12.5 32.5 32.5  13.75 32.5 32.5  16.25 31.25 31.25  17.5 31.25 31.25  17.5 32.5 31.25  17.5 32.5 32.5  17.5 31.25 32.5  16.25 31.25 32.5  16.25 32.5 31.25  16.25 32.5 32.5  18.75 31.25 31.25  20 31.25 31.25  20 32.5 31.25  20 32.5 32.5  20 31.25 32.5  18.75 31.25 32.5  18.75 32.5 31.25  18.75 32.5 32.5  21.25 31.25 31.25  22.5 31.25 31.25  22.5 32.5 31.25  22.5 32.5 32.5  22.5 31.25 32.5  21.25 31.25 32.5  21.25 32.5 31.25  21.25 32.5 32.5  23.75 31.25 31.25  25 31.25 31.25  25 32.5 31.25  25 32.5 32.5  25 31.25 32.5  23.75 31.25 32.5  23.75 32.5 31.25  23.75 32.5 32.5  15 33.75 31.25  13.75 33.75 31.25  15 35 31.25  15 35 32.5  15 33.75 32.5  13.75 33.75 32.5  13.75 35 31.25  13.75 35 32.5  16.25 33.75 31.25  17.5 33.75 31.25  17.5 35 31.25  17.5 35 32.5  17.5 33.75 32.5  16.25 33.75 32.5  16.25 35 31.25  16.25 35 32.5  18.75 33.75 31.25  20 33.75 31.25  20 35 31.25  20 35 32.5  20 33.75 32.5  18.75 33.75 32.5  18.75 35 31.25  18.75 35 32.5  21.25 33.75 31.25  22.5 33.75 31.25  22.5 35 31.25  22.5 35 32.5  22.5 33.75 32.5  21.25 33.75 32.5  21.25 35 31.25  21.25 35 32.5  23.75 33.75 31.25  23.75 33.75 30  25 33.75 31.25  25 33.75 30  25 35 30  25 35 31.25  25 35 32.5  25 33.75 32.5  23.75 33.75 32.5  23.75 35 31.25  23.75 35 30  23.75 35 32.5  15 36.25 31.25  13.75 36.25 31.25  15 37.5 31.25  15 37.5 32.5  15 36.25 32.5  13.75 36.25 32.5  13.75 37.5 31.25  16.25 36.25 31.25  17.5 36.25 31.25  17.5 37.5 31.25  17.5 37.5 32.5  17.5 36.25 32.5  16.25 36.25 32.5  16.25 37.5 31.25  16.25 37.5 32.5  18.75 36.25 31.25  20 36.25 31.25  20 37.5 31.25  20 37.5 32.5  20 36.25 32.5  18.75 36.25 32.5  18.75 37.5 31.25  18.75 37.5 32.5  21.25 36.25 31.25  21.25 36.25 30  22.5 36.25 31.25  22.5 36.25 30  22.5 37.5 30  22.5 37.5 31.25  22.5 37.5 32.5  22.5 36.25 32.5  21.25 36.25 32.5  21.25 37.5 31.25  21.25 37.5 30  21.25 37.5 32.5  23.75 36.25 31.25  23.75 36.25 30  25 36.25 31.25  25 36.25 30  25 37.5 30  25 37.5 31.25  25 37.5 32.5  25 36.25 32.5  23.75 36.25 32.5  23.75 37.5 31.25  23.75 37.5 30  23.75 37.5 32.5  13.75 38.75 31.25  15 38.75 31.25  15 40 31.25  15 40 32.5  15 38.75 32.5  13.75 40 31.25  16.25 38.75 31.25  16.25 38.75 30  17.5 38.75 31.25  17.5 38.75 30  17.5 40 30  17.5 40 31.25  17.5 40 32.5  17.5 38.75 32.5  16.25 38.75 32.5  16.25 40 31.25  16.25 40 30  16.25 40 32.5  18.75 38.75 31.25  18.75 38.75 30  20 38.75 31.25  20 38.75 30  20 40 30  20 40 31.25  20 40 32.5  20 38.75 32.5  18.75 38.75 32.5  18.75 40 31.25  18.75 40 30  18.75 40 32.5  21.25 38.75 31.25  21.25 38.75 30  22.5 38.75 31.25  22.5 38.75 30  22.5 40 30  22.5 40 31.25  22.5 40 32.5  22.5 38.75 32.5  21.25 38.75 32.5  21.25 40 31.25  21.25 40 30  21.25 40 32.5  23.75 38.75 31.25  23.75 38.75 30  25 38.75 31.25  25 38.75 30  25 40 30  25 40 31.25  25 40 32.5  25 38.75 32.5  23.75 38.75 32.5  23.75 40 31.25  23.75 40 30  23.75 40 32.5  15 41.25 31.25  15 41.25 30  15 41.25 32.5  16.25 41.25 31.25  16.25 41.25 30  17.5 41.25 31.25  17.5 41.25 30  17.5 42.5 30  17.5 42.5 31.25  17.5 42.5 32.5  17.5 41.25 32.5  16.25 41.25 32.5  16.25 42.5 31.25  16.25 42.5 30  16.25 42.5 32.5  18.75 41.25 31.25  18.75 41.25 30  20 41.25 31.25  20 41.25 30  20 42.5 30  20 42.5 31.25  20 42.5 32.5  20 41.25 32.5  18.75 41.25 32.5  18.75 42.5 31.25  18.75 42.5 30  18.75 42.5 32.5  21.25 41.25 31.25  21.25 41.25 30  22.5 41.25 31.25  22.5 41.25 30  22.5 42.5 30  22.5 42.5 31.25  22.5 42.5 32.5  22.5 41.25 32.5  21.25 41.25 32.5  21.25 42.5 31.25  21.25 42.5 30  21.25 42.5 32.5  23.75 41.25 31.25  23.75 41.25 30  25 41.25 31.25  25 41.25 30  25 42.5 30  25 42.5 31.25  25 42.5 32.5  25 41.25 32.5  23.75 41.25 32.5  23.75 42.5 31.25  23.75 42.5 30  23.75 42.5 32.5  16.25 43.75 31.25  16.25 43.75 30  17.5 43.75 31.25  17.5 43.75 30  17.5 45 30  17.5 45 31.25  17.5 45 32.5  17.5 43.75 32.5  16.25 43.75 32.5  16.25 45 31.25  16.25 45 30  16.25 45 32.5  18.75 43.75 31.25  18.75 43.75 30  20 43.75 31.25  20 43.75 30  20 45 30  20 45 31.25  20 45 32.5  20 43.75 32.5  18.75 43.75 32.5  18.75 45 31.25  18.75 45 30  18.75 45 32.5  21.25 43.75 31.25  21.25 43.75 30  22.5 43.75 31.25  22.5 43.75 30  22.5 45 30  22.5 45 31.25  22.5 45 32.5  22.5 43.75 32.5  21.25 43.75 32.5  21.25 45 31.25  21.25 45 30  21.25 45 32.5  23.75 43.75 31.25  23.75 43.75 30  25 43.75 31.25  25 43.75 30  25 45 30  25 45 31.25  25 45 32.5  25 43.75 32.5  23.75 43.75 32.5  23.75 45 31.25  23.75 45 30  23.75 45 32.5  16.25 46.25 31.25  16.25 46.25 30  17.5 46.25 31.25  17.5 46.25 30  17.5 47.5 30  17.5 47.5 31.25  17.5 47.5 32.5  17.5 46.25 32.5  16.25 46.25 32.5  16.25 47.5 31.25  16.25 47.5 30  16.25 47.5 32.5  18.75 46.25 31.25  18.75 46.25 30  20 46.25 31.25  20 46.25 30  20 47.5 30  20 47.5 31.25  20 47.5 32
[...]
<PointData  Vectors="u"> 
<DataArray  type="Float64"  Name="u"  NumberOfComponents="3" format="ascii">1.9999999999108877e+02 1.4153999291408145e-10 -2.0945880282303404e-11  1.9999999998995756e+02 -1.4880463212524265e-10 -1.5866757932722483e-10  1.9999999999007505e+02 -6.2474778709057409e-11 7.9047860379552490e-11  1.9999999999001724e+02 -8.3721480150220908e-11 -9.8172114549744068e-11  1.9999999998988153e+02 -2.0128459699297706e-11 -1.1732071257515932e-10  1.9999999998937486e+02 1.1972150295768601e-10 -2.9641710365235246e-11  1.9999999998914973e+02 1.1244331247338378e-10 -6.0554874960654821e-11  1.9999999998935724e+02 7.2395929947862166e-11 7.2499402135608002e-11  1.9999999999006246e+02 -5.0831906657517163e-12 -1.2297274221605375e-12  1.9999999998997387e+02 -5.8922580254947060e-11 -2.6970555096128031e-10  1.9999999998998004e+02 -7.9664248236813611e-11 -1.2268909693212133e-10  1.9999999998990248e+02 -2.4264598879556026e-10 -5.1515122601214872e-11  1.9999999998908186e+02 -1.5767667392666938e-10 -1.5712848097112643e-10  1.9999999998914706e+02 -4.3763715442140618e-11 3.8784614352755026e-11  1.9999999998936218e+02 1.2144294014591811e-10 -3.9870507744840226e-11  1.9999999998917650e+02 2.5200838416434912e-11 -7.9043237682239654e-11  1.9999999998932356e+02 8.1138387010773688e-11 6.8048618628962008e-11  1.9999999998915192e+02 -1.2182306514054888e-11 -4.5184369454895175e-12  1.9999999998997143e+02 -9.5803369531058646e-11 -2.4743918273151074e-10  1.9999999998993613e+02 -1.7070571138106550e-10 -8.4958358283314380e-11  1.9999999999008961e+02 -5.4501825665360516e-11 6.6517759596239513e-11  1.9999999999006175e+02 1.1440185998884252e-11 -1.6992311498899666e-11  1.9999999998904070e+02 -1.6943412732205082e-10 -1.5846462679773821e-10  1.9999999998912784e+02 -8.3849663054738114e-11 4.6257475536080026e-11  1.9999999999001341e+02 -1.1719143286880081e-10 -1.2564920015374892e-10  1.9999999998988866e+02 -2.2676921565970709e-10 -7.8719988212979640e-11  1.9999999998937187e+02 5.4036712482604425e-11 -2.5704848525476106e-11  1.9999999998917980e+02 -3.8294752488485825e-11 -4.5057417068217371e-11  1.9999999998934359e+02 5.0601236151678133e-11 7.3939842830809704e-11  1.9999999998912676e+02 -3.0423883918981320e-11 -4.1018822633854438e-11  1.9999999998997473e+02 -1.4400930855089664e-10 -2.3338432822229982e-10  1.9999999998996103e+02 -2.0888819682752858e-10 -1.1083661886896703e-10  1.9999999999003018e+02 -1.1297244805339978e-10 5.3007237521987170e-11  1.9999999999004407e+02 -2.3096161715465528e-11 -3.1637079945191363e-11  1.9999999998902740e+02 3.2982107990024993e-12 -9.3181723861671499e-11  1.9999999998999047e+02 2.7836893970103712e-12 -5.4603142326805220e-11  1.9999999998915149e+02 3.8846625582404696e-11 -6.6103268510074122e-12  1.9999999998929715e+02 -4.9302293827148357e-10 4.1532833919491104e-11  1.9999999998995764e+02 -3.7802228168161430e-12 -1.9654503106913189e-10  1.9999999999098998e+02 -5.4744221224966610e-10 6.7239629651193405e-11  1.9999999999009543e+02 -1.0684598964047800e-10 1.1175326972258734e-10  1.9999999998917042e+02 8.4707882583837986e-11 -4.7016644274268894e-11  1.9999999998994517e+02 -2.2087910597026565e-10 -1.6467709776542441e-10  1.9999999999000457e+02 -8.3088703338494897e-11 -1.3278795498415303e-10  1.9999999998935286e+02 6.9220888411875629e-11 1.0507073030348820e-10  1.9999999998908234e+02 -1.2232348084748641e-10 -1.4948957176567103e-10  1.9999999998999263e+02 -8.3730800788848095e-11 -1.4125335119366819e-10  1.9999999998917579e+02 2.4888655102902286e-11 -3.7082947972141442e-12  1.9999999998934990e+02 1.0163165927397218e-10 7.3463699395355646e-11  1.9999999998917730e+02 -3.1102200764059104e-11 4.5956552943564051e-12  1.9999999998997546e+02 -1.4107722507962863e-10 -1.9565189195117083e-10  1.9999999998995975e+02 -1.7584136434847539e-10 -1.8696250878309281e-10  1.9999999999004524e+02 4.4305557915638513e-11 -2.8272121679016152e-13  1.9999999998909428e+02 -1.4770504604853477e-10 -1.4444007727593332e-10  1.9999999998998243e+02 -1.1631226249487728e-10 -1.2415870812765513e-10  1.9999999998914757e+02 -1.3449090181295033e-12 -4.9028769349911039e-11  1.9999999998933913e+02 4.2401154761182292e-11 9.6594178931898325e-11  1.9999999998915018e+02 -6.2702386782141179e-11 -1.6552202808697639e-12  1.9999999998996523e+02 -1.5462235863112385e-10 -1.9042992596405231e-10  1.9999999998996395e+02 -1.2986159985655065e-10 -1.2705845320951139e-10  1.9999999999002068e+02 1.0484043799539836e-11 -3.1000838524186301e-11  1.9999999998905108e+02 -1.2405272589021485e-11 -1.4768862307379464e-10  1.9999999998995648e+02 6.6684235805051851e-12 -1.1198477514751450e-10  1.9999999998912972e+02 -2.5637606424355069e-11 -3.4889012249838866e-11  1.9999999998933492e+02 -4.5021306345276414e-10 1.7749560367168489e-11  1.9999999998910477e+02 1.4263218564994824e-11 -4.0184959104107049e-11  1.9999999998995784e+02 -3.2442837277102889e-12 -2.3247578019229858e-10  1.9999999999005695e+02 1.9739145813978495e-10 -4.7593571525610136e-11  1.9999999999100848e+02 -5.0738265661734241e-10 2.1655626304464237e-11  1.9999999999002239e+02 -1.9884350766097451e-11 5.3837166151220905e-11  1.9999999999099603e+02 -3.6642229552514627e-11 1.8217126522758790e-11  1.9999999998911977e+02 5.9073647877874882e-11 -6.7397907977128510e-11  1.9999999998998777e+02 -2.0693664023389143e-10 -1.3970625791553656e-10  1.9999999998998504e+02 -9.6008900269482892e-11 -8.8864792051656076e-11  1.9999999998935556e+02 4.2271090553812137e-11 1.0083967953967061e-10  1.9999999999002895e+02 -5.2742576776816342e-11 -2.1241949965962698e-11  1.9999999998995705e+02 -7.1468616832895606e-11 -2.9303178234913544e-10  1.9999999998911233e+02 -1.2694175183001648e-10 -1.6514719463141608e-10  1.9999999998997083e+02 -1.1272134779589660e-10 -1.0673100775020980e-10  1.9999999998916314e+02 3.9378926287399624e-11 -5.5442356252594917e-11  1.9999999998934425e+02 1.1612490354098053e-10 1.1745491871541094e-10  1.9999999998915541e+02 2.3471198040942423e-11 2.5438067097667694e-11  1.9999999998999604e+02 -1.1131837485477925e-10 -2.1314418745698135e-10  1.9999999998998473e+02 -1.7575957923565349e-10 -1.6879195884940685e-10  1.9999999998909331e+02 -9.4754549874452348e-11 -1.0665815034779055e-10  1.9999999999001258e+02 -9.0150074123449505e-11 -1.1192726393342032e-10  1.9999999998914495e+02 -6.5510436958799622e-11 -2.2954260097476640e-11  1.9999999998936354e+02 4.5321392886314359e-11 7.7037505878380986e-11  1.9999999998914748e+02 -7.8456806582458102e-11 -2.8144915720683250e-11  1.9999999998997802e+02 -1.7835344579755788e-10 -9.2891072065568423e-11  1.9999999998904948e+02 -2.6603960475636690e-11 -7.2977480273919602e-11  1.9999999998995696e+02 3.9664979530801110e-12 -1.0154614698887814e-10  1.9999999998912952e+02 5.0174899679266777e-11 2.9398427144375949e-11  1.9999999998928121e+02 -5.4341080398863600e-10 6.1746332787203835e-11  1.9999999998910880e+02 9.1101548741566372e-12 -7.6337462669444068e-12  1.9999999999005612e+02 1.6549705352634588e-10 -1.0874752466562833e-11  1.9999999998915962e+02 6.6506799586032201e-11 -3.0580543291568625e-11  1.9999999998993110e+02 -2.1405244296388656e-10 -1.1275213372768845e-10  1.9999999998995938e+02 -5.6049973086604602e-11 -1.3159982049836532e-10  1.9999999998933970e+02 8.9661922938239602e-11 1.0482422632918676e-10  1.9999999998909948e+02 -9.3313204455199714e-11 -1.3057171845936694e-10  1.9999999998999877e+02 -1.0547805988665397e-10 -8.6526995530266498e-11  1.9999999998916829e+02 2.8928397398464219e-11 -4.2877396695883598e-11  1.9999999998933635e+02 1.1367942077793232e-10 1.0152251962439151e-10  1.9999999998916201e+02 -1.4149626234990815e-12 4.5895672665782327e-11  1.9999999998757616e+02 -5.8323553847966181e-10 9.3564970924180035e-11  1.9999999998833550e+02 -3.0781693660030970e-11 6.0252023255832019e-11  1.9999999998824896e+02 5.9189381038485472e-11 -2.5752837711465346e-10  1.9999999998826272e+02 4.3902262296143802e-11 -3.4304155914038100e-11  1.9999999998833655e+02 2.3109782398180122e-10 -3.1301303401116578e-11  1.9999999998740677e+02 5.0291840442403337e-11 3.5482522422340680e-11  1.9999999998831447e+02 1.7272841320459887e-10 -1.0037734265160617e-11  1.9999999998827485e+02 3.7798678096917070e-11 -1.2408595396861686e-10  1.9999999998756431e+02 -5.5019343806485434e-10 4.6386264009605799e-11  1.9999999998838734e+02 -2.4447133386180509e-13 8.5349075078216089e-11  1.9999999998825569e+02 5.2944883693362074e-11 -2.2283130997055125e-10  1.9999999998933339e+02 5.0576128483433413e-11 1.0641197371500529e-10  1.9999999998908640e+02 -1.1876096714929424e-10 -9.4656759505473072e-11  1.9999999998909885e+02 6.6594249812811317e-12 4.3063732041497810e-11  1.9999999998996699e+02 -1.0818167436988776e-10 -1.1423457481300026e-10  1.9999999998932924e+02 1.3336673420114043e-10 1.2446763859160390e-10  1.9999999998913552e+02 7.3817107599478922e-11 -3.2162934217014197e-11  1.9999999998936067e+02 1.1930131453752847e-10 8.2644424207790025e-11  1.9999999998909428e+02 7.1831133872916075e-11 -5.9270825163971894e-11  1.9999999998934535e+02 6.7981675084473389e-11 9.2658384658152087e-11  1.9999999998914942e+02 1.2963226321319975e-11 2.4940868596161181e-12  1.9999999998740651e+02 1.2649684948229250e-10 -7.4335121229669702e-11  1.9999999998830512e+02 1.4471991596523652e-10 -6.1655786573389717e-11  1.9999999998826198e+02 4.4417174822376280e-11 -1.3840566277616014e-10  1.9999999998757283e+02 -5.7063325250341976e-10 4.3760684946540558e-11  1.9999999998759142e+02 3.4582469252318478e-11 8.9086836685811383e-11  1.9999999998740989e+02 -6.4156640145646400e-12 -7.0336027456998961e-11  1.9999999998732451e+02 6.5185979901095257e-11 -1.1758624142768988e-10  1.9999999998821977e+02 -2.6175554832793608e-11 -9.0595274172861841e-11  1.9999999998759262e+02 -2.0403948661060537e-11 1.5377803672617978e-10  1.9999999998755746e+02 -1.0122034761028163e-10 1.0960793982833889e-10  1.9999999998737056e+02 7.2103431328224981e-11 -3.5737170528867171e-11  1.9999999998816565e+02 -2.6349022201570214e-11 -1.1898353109622441e-10  1.9999999998754589e+02 -1.2349350698182552e-10 1.4824055827788631e-10  1.9999999998747711e+02 -3.7102654344884836e-13 2.9200235903212321e-11  1.9999999998930380e+02 -1.2282108106617206e-10 1.0273164975062150e-10  1.9999999998822636e+02 1.7380391149438193e-11 -1.9273074722844176e-10  1.9999999998832894e+02 8.9703521132705731e-11 -7.1443754416433736e-11  1.9999999998812527e+02 -3.8147881286494610e-11 -2.1788685297611503e-10  1.9999999998920856e+02 -5.2232423287158489e-11 -4.8365239614067039e-12  1.9999999998934069e+02 -2.1179359171159324e-11 1.0704057234530631e-10  1.9999999998830467e+02 4.4444832973116569e-12 -8.1234806661162939e-11  1.9999999998588513e+02 -6.4334482048977133e-11 1.1365055896326670e-10  1.9999999998552468e+02 -7.5041841019898104e-12 -8.7403691553436299e-11  1.9999999998574410e+02 -1.0862445779131232e-11 -6.8030810583297820e-11  1.9999999998648147e+02 -1.8364710009255321e-11 -5.2708802296676739e-11  1.9999999998585460e+02 6.2474181495252053e-11 4.5609776887757548e-11  1.9999999998581063e+02 -5.9986006828920056e-11 -2.5840031898319292e-11  1.9999999998589087e+02 2.8324483562008314e-11 1.2718481278433623e-10  1.9999999998568413e+02 8.8459874650623295e-11 -1.4501307528703326e-11  1.9999999998585750e+02 -1.0961239680389986e-10 1.2957442517676422e-10  1.9999999998574665e+02 -2.2441226906942580e-12 3.5209025430947838e-11  1.9999999998644009e+02 6.7880893638914015e-11 -1.9929950656937578e-10  1.9999999998657182e+02 7.1888159572100627e-11 -2.5333548445070740e-11  1.9999999998639476e+02 2.8334068327542446e-11 -2.1963870058294523e-10  1.9999999998659632e+02 -1.4318419944833962e-11 -6.4043625716677876e-11  1.9999999998416095e+02 -1.1756750900024878e-12 1.0657367525805725e-10  1.9999999998385792e+02 -2.5864998041807377e-11 -4.9606819932499435e-11  1.9999999998402126e+02 -8.4375847016484414e-11 -1.6550644766538081e-12  1.9999999998483111e+02 -9.6693816382771143e-11 -8.1342498052719201e-11  1.9999999998414401e+02 8.0698956759052009e-11 3.5039620615825720e-11  1.9999999998407367e+02 -1.5150361321840492e-11 2.0464720391784763e-11  1.9999999998419085e+02 1.9328040547644972e-11 1.1986523309154566e-10  1.9999999998401947e+02 1.2916134918015680e-10 -6.7731207490237144e-13  1.9999999998415674e+02 -6.2943179983199463e-11 9.9334548975086978e-11  1.9999999998408958e+02 2.1017571984834974e-11 2.9141931567232913e-11  1.9999999998479788e+02 9.7052575757562091e-11 -7.0585479227137379e-11  1.9999999998485632e+02 6.6993273470710761e-11 -2.0836043195407599e-11  1.9999999998477585e+02 -1.8994187398743663e-10 -7.6722588148998779e-11  1.9999999998488309e+02 -1.1542818052828122e-10 5.7385003238182165e-11  1.9999999998488198e+02 5.1608039446771974e-11 -7.7231004265984694e-11  1.9999999998314703e+02 -3.0803117042471985e-11 4.2210436797091530e-12  1.9999999998306484e+02 7.5621920137988450e-11 -2.9181604035837090e-10  1.9999999998318199e+02 2.9154224191908467e-11 -1.2716276949627850e-10  1.9999999998247804e+02 9.0269752366474371e-11 7.7279383946993979e-11  1.9999999998310074e+02 -3.9875429202439559e-10 3.2970141985158048e-11  1.9999999998757991e+02 8.9003761337565179e-11 4.4437631066622897e-11  1.9999999998745875e+02 -5.8100394838801157e-12 -5.4662251360778232e-11  1.9999999998733506e+02 -7.3067151883104797e-11 -1.1320414907228613e-10  1.9999999998824745e+02 -8.5840788308496945e-11 -9.2165178870578435e-11  1.9999999998759452e+02 9.0254653738415411e-11 9.2320367094782060e-11  1.9999999998748373e+02 -1.5996121030333485e-11 -3.1312763177178512e-11  1.9999999998826434e+02 -1.2476817044698549e-10 -1.8267877002014007e-10  1.9999999998825035e+02 -1.8468516194249417e-10 -1.0422702718106412e-10  1.9999999998919412e+02 -6.3080624260182710e-11 -8.6250350632511069e-11  1.9999999998933555e+02 9.8739125453203267e-11 5.4493713392413483e-11  1.9999999998832251e+02 7.2680610472601250e-13 -2.6343723122783924e-11  1.9999999998560824e+02 -1.0368184056191121e-10 -7.8947950013346509e-11  1.9999999998566432e+02 6.1874928017322698e-13 1.1295103981132815e-11  1.9999999998650762e+02 -8.4776195728849825e-11 -9.0849433404811727e-11  1.9999999998585966e+02 1.1943390290625152e-10 3.4750430671954780e-11  1.9999999998579139e+02 1.7897529300884821e-11 -3.1659573649003417e-11  1.9999999998586861e+02 1.0429442830006470e-10 1.0275703832659204e-10  1.9999999998575780e+02 -2.9064882596936503e-11 -1.0554285100072243e-11  1.9999999998649207e+02 -5.3333235169805916e-11 -1.6657552298933011e-10  1.9999999998649469e+02 -2.0126926298243119e-10 -1.1191400876045603e-10  1.9999999998659555e+02 -3.7191809332136287e-11 -9.8643905131331628e-12  1.9999999998485598e+02 -7.5219230268508573e-11 -4.8149822469911506e-11  1.9999999998378004e+02 -1.2236738986215027e-10 -3.1972201954453424e-11  1.9999999998406085e+02 -3.2516500373709916e-11 -2.7643910743440511e-11  1.9999999998418755e+02 6.7315540688342629e-11 4.7491366066838781e-11  1.9999999998479851e+02 -1.1321872443267451e-10 -2.2137774437729975e-10  1.9999999998485626e+02 4.7783659779516281e-12 -2.9297395370758332e-11  1.9999999998480286e+02 -2.2554093427285872e-10 -5.3371455705333463e-11  1.9999999998315400e+02 -2.5194557711017894e-11 1.3114694436995696e-11  1.9999999998317102e+02 -1.0703334026679765e-10 -1.7946865776011066e-10  1.9999999998229123e+02 3.6756506899474948e-11 2.1148548967261789e-11  1.9999999998250874e+02 7.4624256545361584e-11 4.7862563755574188e-11  1.9999999998321113e+02 -1.0502552640606433e-10 2.3290592755476462e-12  1.9999999998729311e+02 -1.5118685090098237e-10 -7.2821800544655387e-11  1.9999999998738363e+02 -4.5970423599918104e-12 4.1558411447162831e-11  1.9999999998826252e+02 -9.5822944195455093e-11 -1.1486487084459594e-10  1.9999999998757019e+02 1.1212886845281072e-10 -2.1223902005200626e-11  1.9999999998749064e+02 1.6712381300943950e-11 -3.4928047692069219e-12  1.9999999998759910e+02 1.3417515516062976e-10 7.7801953239489921e-11  1.9999999998747862e+02 -5.6306233377326806e-11 -2.3438969374395530e-11  1.9999999998824472e+02 -1.3287869222286299e-10 -1.8381374615087584e-10  1.9999999998821431e+02 -1.7767849846204161e-10 -1.0281264525987342e-10  1.9999999998922885e+02 -4.2227228460678980e-11 -1.6103036151544011e-11  1.9999999998932390e+02 1.2914306446268802e-10 6.9808132899647008e-11  1.9999999998834883e+02 8.7322907082412725e-12 -7.0989824779338876e-12  1.9999999998552306e+02 -1.0639573602464027e-10 -7.1358245783667980e-11  1.9999999998655539e+02 -8.0208435598654864e-11 -5.0244767930114055e-11  1.9999999998576575e+02 -3.4318430507675247e-11 -1.7804258971301976e-11  1.9999999998588612e+02 1.3744998347142458e-10 4.4468739661980364e-11  1.9999999998652967e+02 -1.0575338428675440e-10 -2.1725619664697529e-10  1.9999999998658222e+02 1.9700259480758272e-11 -2.5924905079650540e-11  1.9999999998653743e+02 -2.4394454176754378e-10 -3.7126311166380041e-11  1.9999999998482360e+02 -6.2280937361401396e-11 -4.4209794533630627e-11  1.9999999998478066e+02 -9.7747893737736698e-11 -2.2749468922992392e-10  1.9999999998398604e+02 3.5024940569036771e-12 1.1834167967937504e-12  1.9999999998417789e+02 1.5747868271596733e-10 -1.3315871267621513e-12  1.9999999998490054e+02 -1.1630306435441865e-10 2.5279561395621114e-11  1.9999999998921012e+02 -6.2769031909530875e-12 -1.6160456092434823e-11  1.9999999998895620e+02 -1.3117449151460290e-10 -4.9784888951554817e-11  1.9999999999000357e+02 -9.4338889825469724e-11 -5.6057547058981342e-11  1.9999999998937062e+02 8.2829448083382033e-11 8.4982422679950945e-11  1.9999999999002878e+02 -1.5043365639787988e-10 -1.9657291637385542e-10  1.9999999999009503e+02 2.6138712140322757e-11 -3.5415927121798300e-11  1.9999999999102789e+02 8.1966386658310498e-11 1.0974656296724023e-10  1.9999999999007136e+02 2.9730526298668521e-12 1.7210141105151179e-11  1.9999999999002341e+02 -2.8860612728583050e-10 -8.2603062890923384e-11  1.9999999998722774e+02 -8.5296545793425357e-11 -5.5699271640137988e-11  1.9999999998827644e+02 -3.7717691093000587e-11 -7.4417152172422681e-11  1.9999999998751727e+02 -6.7476481925924342e-11 -1.4288762296655432e-11  1.9999999998757917e+02 1.2440351373494101e-10 1.6875907136599353e-11  1.9999999998824390e+02 -1.1780693824083729e-10 -1.7288487253005457e-10  1.9999999998828937e+02 -8.1172458165296199e-11 -2.8512376073591123e-11  1.9999999998656665e+02 -6.5668175169343625e-11 -8.1563106522677435e-12  1.9999999998651802e+02 -1.4474293082346022e-10 -2.4312688966017944e-10  1.9999999998563376e+02 1.5122882276486950e-11 6.4042455252527402e-12  1.9999999998587060e+02 1.2053235704011105e-10 1.3220321851357526e-12  1.9999999998668306e+02 -1.1689283966112781e-10 5.6094568139877286e-11  1.9999999999000605e+02 -9.5234326717661932e-11 -2.1347911071700614e-10  1.9999999999006204e+02 -6.3254221147592804e-11 -3.6447944781513370e-11  1.9999999998912978e+02 1.3976612170356486e-11 1.0510616695178355e-11  1.9999999998936528e+02 7.8183848998951743e-11 -6.4038188864672495e-12  1.9999999999007809e+02 2.3196751623357180e-11 1.1837567357323413e-10  1.9999999998900432e+02 4.4637499046316141e-11 -1.4166080368661159e-10  1.9999999999001994e+02 -3.9911201662009598e-11 -1.0177710531611096e-10  1.9999999998913216e+02 -3.2606173817259000e-11 -6.9242847496644300e-11  1.9999999998932563e+02 -2.4831553019507657e-11 1.3017128639913112e-10  1.9999999999103392e+02 -1.1938367370733848e-10 8.9153535346476738e-11  1.9999999998997248e+02 4.0373309181341878e-11 -1.6769908198919886e-10  1.9999999999012914e+02 5.8819843116517466e-11 -7.2801121788364947e-11  1.9999999998913754e+02 4.4289452635107106e-11 -4.3686287964524624e-11  1.9999999998935354e+02 -1.5680045842302961e-10 9.4696374206722381e-11  1.9999999998922604e+02 -8.9089244147995012e-12 -1.5955389683333881e-11  1.9999999999107379e+02 1.6618484792457781e-11 -7.0391655363943580e-11  1.9999999999098409e+02 -1.8357491853088612e-10 1.4621476060541299e-10  1.9999999998999832e+02 1.0037916769103609e-10 -1.7249523027102115e-10  1.9999999999007198e+02 1.3605319771460351e-11 -1.0930699897871138e-10  1.9999999998991171e+02 -3.9303904400028448e-11 -1.9471444271790924e-10  1.9999999999099165e+02 1.4112492640158706e-11 -5.8426361889437558e-11  1.9999999999097116