<?xml version="1.0"?>
<VTKFile type="UnstructuredGrid"  version="0.1"  >
<UnstructuredGrid>
<Piece  NumberOfPoints="3871" NumberOfCells="18975">
<Points>
<DataArray  type="Float64"  NumberOfComponents="3"  format="ascii">10 40 0  10 41.25 1.25  10 41.25 0  8.75 41.25 1.25  8.75 41.25 0  10 42.5 0  10 42.5 1.25  10 42.5 2.5  10 40 1.25  10 40 2.5  10 41.25 2.5  8.75 41.25 2.5  7.5 42.5 0  8.75 42.5 1.25  8.75 42.5 0  7.5 42.5 2.5  8.75 42.5 2.5  7.5 42.5 1.25  11.25 41.25 1.25  11.25 41.25 0  11.25 42.5 1.25  11.25 42.5 0  12.5 42.5 0  12.5 42.5 1.25  12.5 42.5 2.5  11.25 41.25 2.5  11.25 42.5 2.5  7.5 43.75 1.25  7.5 43.75 0  6.25 43.75 1.25  6.25 43.75 0  7.5 45 0  7.5 45 1.25  7.5 45 2.5  7.5 43.75 2.5  6.25 45 1.25  6.25 45 0  8.75 43.75 1.25  8.75 43.75 0  10 43.75 1.25  10 43.75 0  10 45 0  10 45 1.25  10 45 2.5  10 43.75 2.5  8.75 43.75 2.5  8.75 45 1.25  8.75 45 0  8.75 45 2.5  11.25 43.75 1.25  11.25 43.75 0  12.5 43.75 1.25  12.5 43.75 0  12.5 45 0  12.5 45 1.25  12.5 45 2.5  12.5 43.75 2.5  11.25 43.75 2.5  11.25 45 1.25  11.25 45 0  11.25 45 2.5  13.75 43.75 1.25  13.75 43.75 0  13.75 45 1.25  13.75 45 0  15 45 0  15 45 1.25  15 45 2.5  13.75 43.75 2.5  13.75 45 2.5  7.5 46.25 1.25  7.5 46.25 0  6.25 46.25 1.25  6.25 46.25 0  7.5 47.5 0  7.5 47.5 1.25  7.5 47.5 2.5  7.5 46.25 2.5  6.25 46.25 2.5  5 47.5 0  6.25 47.5 1.25  6.25 47.5 0  6.25 47.5 2.5  8.75 46.25 1.25  8.75 46.25 0  10 46.25 1.25  10 46.25 0  10 47.5 0  10 47.5 1.25  10 47.5 2.5  10 46.25 2.5  8.75 46.25 2.5  8.75 47.5 1.25  8.75 47.5 0  8.75 47.5 2.5  11.25 46.25 1.25  11.25 46.25 0  12.5 46.25 1.25  12.5 46.25 0  12.5 47.5 0  12.5 47.5 1.25  12.5 47.5 2.5  12.5 46.25 2.5  11.25 46.25 2.5  11.25 47.5 1.25  11.25 47.5 0  11.25 47.5 2.5  13.75 46.25 1.25  13.75 46.25 0  15 46.25 1.25  15 46.25 0  15 47.5 0  15 47.5 1.25  15 47.5 2.5  15 46.25 2.5  13.75 46.25 2.5  13.75 47.5 1.25  13.75 47.5 0  13.75 47.5 2.5  6.25 48.75 1.25  6.25 48.75 0  7.5 48.75 1.25  7.5 48.75 0  7.5 50 0  7.5 50 1.25  7.5 50 2.5  7.5 48.75 2.5  6.25 48.75 2.5  5 50 0  6.25 50 1.25  6.25 50 0  5 50 2.5  6.25 50 2.5  5 50 1.25  8.75 48.75 1.25  8.75 48.75 0  10 48.75 1.25  10 48.75 0  10 50 0  10 50 1.25  10 50 2.5  10 48.75 2.5  8.75 48.75 2.5  8.75 50 1.25  8.75 50 0  8.75 50 2.5  11.25 48.75 1.25  11.25 48.75 0  12.5 48.75 1.25  12.5 48.75 0  12.5 50 0  12.5 50 1.25  12.5 50 2.5  12.5 48.75 2.5  11.25 48.75 2.5  11.25 50 1.25  11.25 50 0  11.25 50 2.5  13.75 48.75 1.25  13.75 48.75 0  15 48.75 1.25  15 48.75 0  15 50 0  15 50 1.25  15 50 2.5  15 48.75 2.5  13.75 48.75 2.5  13.75 50 1.25  13.75 50 0  13.75 50 2.5  10 40 5  11.25 40 5  11.25 38.75 5  11.25 38.75 3.75  12.5 40 5  11.25 40 3.75  10 40 3.75  10 41.25 3.75  8.75 41.25 3.75  10 42.5 3.75  10 42.5 5  10 41.25 5  8.75 42.5 3.75  11.25 41.25 3.75  11.25 41.25 5  12.5 41.25 5  12.5 42.5 5  11.25 42.5 3.75  12.5 42.5 3.75  11.25 42.5 5  8.75 43.75 3.75  10 43.75 3.75  10 45 3.75  10 45 5  10 43.75 5  8.75 43.75 5  8.75 45 3.75  7.5 45 5  8.75 45 5  7.5 45 3.75  11.25 43.75 3.75  12.5 43.75 3.75  12.5 45 3.75  12.5 45 5  12.5 43.75 5  11.25 43.75 5  11.25 45 3.75  11.25 45 5  13.75 43.75 3.75  13.75 45 3.75  15 45 3.75  15 45 5  13.75 43.75 5  13.75 45 5  7.5 46.25 3.75  6.25 46.25 3.75  7.5 47.5 3.75  7.5 47.5 5  7.5 46.25 5  6.25 46.25 5  6.25 47.5 3.75  6.25 47.5 5  8.75 46.25 3.75  10 46.25 3.75  10 47.5 3.75  10 47.5 5  10 46.25 5  8.75 46.25 5  8.75 47.5 3.75  8.75 47.5 5  11.25 46.25 3.75  12.5 46.25 3.75  12.5 47.5 3.75  12.5 47.5 5  12.5 46.25 5  11.25 46.25 5  11.25 47.5 3.75  11.25 47.5 5  13.75 46.25 3.75  15 46.25 3.75  15 47.5 3.75  15 47.5 5  15 46.25 5  13.75 46.25 5  13.75 47.5 3.75  13.75 47.5 5  7.5 48.75 3.75  6.25 48.75 3.75  7.5 50 3.75  7.5 50 5  7.5 48.75 5  6.25 48.75 5  6.25 50 3.75  5 50 5  6.25 50 5  5 50 3.75  8.75 48.75 3.75  10 48.75 3.75  10 50 3.75  10 50 5  10 48.75 5  8.75 48.75 5  8.75 50 3.75  8.75 50 5  11.25 48.75 3.75  12.5 48.75 3.75  12.5 50 3.75  12.5 50 5  12.5 48.75 5  11.25 48.75 5  11.25 50 3.75  11.25 50 5  13.75 48.75 3.75  15 48.75 3.75  15 50 3.75  15 50 5  15 48.75 5  13.75 48.75 5  13.75 50 3.75  13.75 50 5  11.25 40 6.25  11.25 38.75 6.25  12.5 40 6.25  12.5 40 7.5  11.25 41.25 6.25  12.5 41.25 6.25  12.5 42.5 6.25  12.5 42.5 7.5  12.5 41.25 7.5  11.25 41.25 7.5  11.25 42.5 6.25  10 42.5 7.5  11.25 42.5 7.5  10 42.5 6.25  10 43.75 6.25  8.75 43.75 6.25  10 45 6.25  10 45 7.5  10 43.75 7.5  8.75 43.75 7.5  8.75 45 6.25  7.5 45 7.5  8.75 45 7.5  7.5 45 6.25  11.25 43.75 6.25  12.5 43.75 6.25  12.5 45 6.25  12.5 45 7.5  12.5 43.75 7.5  11.25 43.75 7.5  11.25 45 6.25  11.25 45 7.5  13.75 43.75 6.25  13.75 45 6.25  15 45 6.25  15 45 7.5  13.75 43.75 7.5  13.75 45 7.5  7.5 46.25 6.25  6.25 46.25 6.25  7.5 47.5 6.25  7.5 47.5 7.5  7.5 46.25 7.5  6.25 46.25 7.5  6.25 47.5 6.25  6.25 47.5 7.5  8.75 46.25 6.25  10 46.25 6.25  10 47.5 6.25  10 47.5 7.5  10 46.25 7.5  8.75 46.25 7.5  8.75 47.5 6.25  8.75 47.5 7.5  11.25 46.25 6.25  12.5 46.25 6.25  12.5 47.5 6.25  12.5 47.5 7.5  12.5 46.25 7.5  11.25 46.25 7.5  11.25 47.5 6.25  11.25 47.5 7.5  13.75 46.25 6.25  15 46.25 6.25  15 47.5 6.25  15 47.5 7.5  15 46.25 7.5  13.75 46.25 7.5  13.75 47.5 6.25  13.75 47.5 7.5  7.5 48.75 6.25  6.25 48.75 6.25  7.5 50 6.25  7.5 50 7.5  7.5 48.75 7.5  6.25 48.75 7.5  6.25 50 6.25  5 50 7.5  6.25 50 7.5  5 50 6.25  8.75 48.75 6.25  10 48.75 6.25  10 50 6.25  10 50 7.5  10 48.75 7.5  8.75 48.75 7.5  8.75 50 6.25  8.75 50 7.5  11.25 48.75 6.25  12.5 48.75 6.25  12.5 50 6.25  12.5 50 7.5  12.5 48.75 7.5  11.25 48.75 7.5  11.25 50 6.25  11.25 50 7.5  13.75 48.75 6.25  15 48.75 6.25  15 50 6.25  15 50 7.5  15 48.75 7.5  13.75 48.75 7.5  13.75 50 6.25  13.75 50 7.5  12.5 41.25 8.75  11.25 41.25 8.75  12.5 42.5 8.75  12.5 42.5 10  12.5 40 8.75  12.5 40 10  12.5 41.25 10  11.25 41.25 10  11.25 42.5 8.75  10 42.5 10  11.25 42.5 10  10 42.5 8.75  13.75 41.25 8.75  13.75 41.25 10  13.75 42.5 10  15 42.5 10  13.75 42.5 8.75  10 43.75 8.75  8.75 43.75 8.75  10 45 8.75  10 45 10  10 43.75 10  8.75 43.75 10  8.75 45 8.75  7.5 45 10  8.75 45 10  7.5 45 8.75  11.25 43.75 8.75  12.5 43.75 8.75  12.5 45 8.75  12.5 45 10  12.5 43.75 10  11.25 43.75 10  11.25 45 8.75  11.25 45 10  13.75 43.75 8.75  13.75 43.75 10  15 43.75 10  15 45 10  13.75 45 8.75  15 45 8.75  13.75 45 10  7.5 46.25 8.75  6.25 46.25 8.75  7.5 47.5 8.75  7.5 47.5 10  7.5 46.25 10  6.25 46.25 10  6.25 47.5 8.75  5 47.5 10  6.25 47.5 10  8.75 46.25 8.75  10 46.25 8.75  10 47.5 8.75  10 47.5 10  10 46.25 10  8.75 46.25 10  8.75 47.5 8.75  8.75 47.5 10  11.25 46.25 8.75  12.5 46.25 8.75  12.5 47.5 8.75  12.5 47.5 10  12.5 46.25 10  11.25 46.25 10  11.25 47.5 8.75  11.25 47.5 10  13.75 46.25 8.75  15 46.25 8.75  15 47.5 8.75  15 47.5 10  15 46.25 10  13.75 46.25 10  13.75 47.5 8.75  13.75 47.5 10  7.5 48.75 8.75  6.25 48.75 8.75  7.5 50 8.75  7.5 50 10  7.5 48.75 10  6.25 48.75 10  6.25 50 8.75  5 50 10  6.25 50 10  5 50 8.75  8.75 48.75 8.75  10 48.75 8.75  10 50 8.75  10 50 10  10 48.75 10  8.75 48.75 10  8.75 50 8.75  8.75 50 10  11.25 48.75 8.75  12.5 48.75 8.75  12.5 50 8.75  12.5 50 10  12.5 48.75 10  11.25 48.75 10  11.25 50 8.75  11.25 50 10  13.75 48.75 8.75  15 48.75 8.75  15 50 8.75  15 50 10  15 48.75 10  13.75 48.75 10  13.75 50 8.75  13.75 50 10  12.5 40 11.25  12.5 38.75 11.25  11.25 38.75 11.25  12.5 40 12.5  12.5 37.5 12.5  12.5 38.75 12.5  11.25 38.75 12.5  11.25 40 11.25  10 40 12.5  11.25 40 12.5  10 42.5 11.25  10 41.25 11.25  8.75 41.25 11.25  10 42.5 12.5  10 41.25 12.5  8.75 41.25 12.5  8.75 42.5 11.25  7.5 42.5 12.5  8.75 42.5 12.5  12.5 41.25 11.25  11.25 41.25 11.25  12.5 42.5 11.25  12.5 42.5 12.5  12.5 41.25 12.5  11.25 41.25 12.5  11.25 42.5 11.25  11.25 42.5 12.5  13.75 41.25 11.25  13.75 42.5 11.25  15 42.5 11.25  15 42.5 12.5  13.75 41.25 12.5  13.75 42.5 12.5  7.5 45 11.25  7.5 43.75 11.25  6.25 43.75 11.25  7.5 45 12.5  7.5 43.75 12.5  6.25 45 11.25  10 43.75 11.25  8.75 43.75 11.25  10 45 11.25  10 45 12.5  10 43.75 12.5  8.75 43.75 12.5  8.75 45 11.25  8.75 45 12.5  11.25 43.75 11.25  12.5 43.75 11.25  12.5 45 11.25  12.5 45 12.5  12.5 43.75 12.5  11.25 43.75 12.5  11.25 45 11.25  11.25 45 12.5  13.75 43.75 11.25  15 43.75 11.25  15 45 11.25  15 45 12.5  15 43.75 12.5  13.75 43.75 12.5  13.75 45 11.25  13.75 45 12.5  7.5 46.25 11.25  6.25 46.25 11.25  7.5 47.5 11.25  7.5 47.5 12.5  7.5 46.25 12.5  6.25 46.25 12.5  6.25 47.5 11.25  6.25 47.5 12.5  8.75 46.25 11.25  10 46.25 11.25  10 47.5 11.25  10 47.5 12.5  10 46.25 12.5  8.75 46.25 12.5  8.75 47.5 11.25  8.75 47.5 12.5  11.25 46.25 11.25  12.5 46.25 11.25  12.5 47.5 11.25  12.5 47.5 12.5  12.5 46.25 12.5  11.25 46.25 12.5  11.25 47.5 11.25  11.25 47.5 12.5  13.75 46.25 11.25  15 46.25 11.25  15 47.5 11.25  15 47.5 12.5  15 46.25 12.5  13.75 46.25 12.5  13.75 47.5 11.25  13.75 47.5 12.5  6.25 48.75 11.25  7.5 48.75 11.25  7.5 50 11.25  7.5 50 12.5  7.5 48.75 12.5  6.25 48.75 12.5  6.25 50 11.25  5 50 12.5  6.25 50 12.5  5 50 11.25  8.75 48.75 11.25  10 48.75 11.25  10 50 11.25  10 50 12.5  10 48.75 12.5  8.75 48.75 12.5  8.75 50 11.25  8.75 50 12.5  11.25 48.75 11.25  12.5 48.75 11.25  12.5 50 11.25  12.5 50 12.5  12.5 48.75 12.5  11.25 48.75 12.5  11.25 50 11.25  11.25 50 12.5  13.75 48.75 11.25  15 48.75 11.25  15 50 11.25  15 50 12.5  15 48.75 12.5  13.75 48.75 12.5  13.75 50 11.25  13.75 50 12.5  11.25 40 13.75  11.25 38.75 13.75  12.5 40 13.75  12.5 40 15  10 40 13.75  10 40 15  11.25 40 15  10 41.25 13.75  8.75 41.25 13.75  10 42.5 13.75  10 42.5 15  10 41.25 15  8.75 41.25 15  8.75 42.5 13.75  7.5 42.5 15  8.75 42.5 15  7.5 42.5 13.75  11.25 41.25 13.75  12.5 41.25 13.75  12.5 42.5 13.75  12.5 42.5 15  12.5 41.25 15  11.25 41.25 15  11.25 42.5 13.75  11.25 42.5 15  13.75 41.25 13.75  13.75 42.5 13.75  15 42.5 13.75  15 42.5 15  13.75 41.25 15  13.75 42.5 15  8.75 43.75 13.75  10 43.75 13.75  10 45 13.75  10 45 15  10 43.75 15  8.75 43.75 15  8.75 45 13.75  7.5 43.75 13.75  7.5 43.75 15  7.5 45 15  8.75 45 15  7.5 45 13.75  11.25 43.75 13.75  12
[...]
<PointData  Vectors="u"> 
<DataArray  type="Float64"  Name="u"  NumberOfComponents="3" format="ascii">1.9999999999286652e+02 6.9596041681274657e-11 6.7297318970000180e-10  1.9999999999260979e+02 -1.6432058174135406e-10 -8.3893490693940006e-11  1.9999999999259845e+02 -7.5903297291274761e-11 9.0792341153712419e-12  1.9999999999355822e+02 -1.1244567879983283e-10 -1.6002023324494615e-10  1.9999999999339099e+02 -2.8053200541375791e-10 -5.1031503811642360e-10  1.9999999999287246e+02 1.1404642435773908e-10 7.2182164416037485e-10  1.9999999999273027e+02 -3.8366317335011404e-11 6.5308961644151507e-12  1.9999999999283534e+02 1.0157180404199587e-10 1.6916229283328874e-10  1.9999999999267263e+02 6.0953034766381778e-11 -2.9328272277526735e-11  1.9999999999287942e+02 9.8795071626928912e-11 1.2546145575418815e-10  1.9999999999258907e+02 -5.1031848581315468e-11 7.6630687767201928e-11  1.9999999999353213e+02 -1.1723915043613311e-10 -2.4029842074465216e-10  1.9999999999465928e+02 1.3638585988514245e-10 7.1605041635087074e-10  1.9999999999349654e+02 -1.8276701227655767e-10 -1.8926691229366965e-10  1.9999999999350496e+02 -4.8178816625625135e-11 -2.9584253089364337e-11  1.9999999999465396e+02 1.1993249628835466e-10 1.9001902258288230e-10  1.9999999999356459e+02 2.3431769054101745e-11 5.6010030462534822e-11  1.9999999999449011e+02 1.0282660904026627e-11 -8.2797453355697910e-11  1.9999999999179451e+02 -7.7783943984540373e-11 -7.1725112839042282e-11  1.9999999999165252e+02 -5.3733278239914854e-11 -5.0518568793510275e-10  1.9999999999174236e+02 -2.6848501741045610e-10 -2.1695431120873990e-10  1.9999999999181804e+02 -9.9914172295211673e-11 -6.5311474096281426e-13  1.9999999999113882e+02 6.2630641257300807e-11 7.5484388161062381e-10  1.9999999999089218e+02 5.9590075204864716e-11 -1.0591868533706746e-10  1.9999999999111503e+02 7.6557216681464851e-11 1.5300734836004093e-10  1.9999999999167792e+02 -7.2851620120719272e-11 7.6263332026512161e-11  1.9999999999180682e+02 -9.9121540377947633e-12 3.4741844965343627e-11  1.9999999999434993e+02 -1.2100034701279658e-10 -2.1533308682943812e-10  1.9999999999443796e+02 -6.2850744905128554e-11 4.7176849075480912e-11  1.9999999999533819e+02 -8.5657730632465217e-11 -1.8056724482888992e-10  1.9999999999523411e+02 -2.0799351091110431e-10 -4.3745111887741949e-10  1.9999999999467292e+02 9.7631725780411068e-11 7.4848297569585277e-10  1.9999999999455062e+02 -3.2114308159345616e-11 -7.3535527290107474e-11  1.9999999999466419e+02 1.0472062076026074e-10 1.5854029658127113e-10  1.9999999999452703e+02 -4.6531517796688173e-11 1.8244269603351651e-11  1.9999999999525954e+02 -2.4489625621442048e-10 -2.0377034143123225e-10  1.9999999999537039e+02 -1.1666525554675724e-10 -2.3791391573717833e-12  1.9999999999350382e+02 -8.0716280163209150e-11 -1.6856254106534915e-10  1.9999999999337470e+02 -2.2238820413002534e-10 -5.0715239915631971e-10  1.9999999999256374e+02 -9.2837830996798004e-11 -1.9308923462647737e-10  1.9999999999269312e+02 -4.7971111497955767e-11 5.4136166454923071e-11  1.9999999999285893e+02 1.6484058472596847e-10 7.4696211443943705e-10  1.9999999999272683e+02 -2.4737884481236846e-12 -4.7245352101414453e-11  1.9999999999283170e+02 1.1204170526347280e-10 1.7153918659211172e-10  1.9999999999272066e+02 -4.4163540353402972e-11 5.4475118939586730e-11  1.9999999999351576e+02 -1.2062577102936853e-10 -1.5759909645589788e-10  1.9999999999352596e+02 -1.4218633781366810e-10 -1.8686591239056908e-10  1.9999999999360716e+02 -7.3921136131052678e-11 5.1024167057323199e-13  1.9999999999361771e+02 -2.3283292284675471e-11 5.0575272453315622e-11  1.9999999999175503e+02 -5.9780327691786450e-11 -1.7456622402034357e-10  1.9999999999164913e+02 -1.9571213512900594e-10 -5.0303597713297373e-10  1.9999999999083417e+02 -1.4715367508873584e-10 -1.9498716020221374e-10  1.9999999999086546e+02 -4.6878520259431831e-11 3.4658080474311363e-11  1.9999999999109920e+02 1.3129746823090575e-10 7.2685252406732729e-10  1.9999999999097270e+02 -5.5372679307467718e-12 -6.9023363027800384e-11  1.9999999999105412e+02 1.0411637262658700e-10 1.7333795512582987e-10  1.9999999999090258e+02 -4.7334120059518973e-11 4.0969224093055957e-11  1.9999999999175202e+02 -8.6681997844941900e-11 -1.3463879425474976e-10  1.9999999999171882e+02 -1.4813944514521316e-10 -2.1138256990728577e-10  1.9999999999180841e+02 -9.5700160482314002e-11 4.5283747180548812e-11  1.9999999999180477e+02 -2.5444812075980933e-12 2.7385719285459444e-11  1.9999999999000752e+02 -5.5571290292181935e-11 -1.7453505755107668e-10  1.9999999998989770e+02 -3.9676250412938901e-11 -5.4364817434822791e-10  1.9999999998996654e+02 -2.1037628235471553e-10 -2.3885952833034681e-10  1.9999999999010493e+02 -1.1299126157509307e-10 4.4213670109098021e-11  1.9999999998935380e+02 1.2145565651254376e-10 7.2507696900774918e-10  1.9999999998910567e+02 1.0653304377347984e-10 -1.3502627318450229e-10  1.9999999998937420e+02 7.4276205433020547e-11 1.6701982698154386e-10  1.9999999998999994e+02 -6.6785295014526934e-11 -2.9316212381326998e-10  1.9999999999003634e+02 -2.5874429366880837e-11 1.9957464936225840e-11  1.9999999999437424e+02 -1.2124551854930958e-10 -1.8177316202007382e-10  1.9999999999448406e+02 -4.7799712156327456e-11 1.9380563047766753e-11  1.9999999999532400e+02 -8.2528377723025324e-11 -1.9030793469833074e-10  1.9999999999516893e+02 -1.8572047739473932e-10 -4.8453163637344389e-10  1.9999999999466925e+02 9.4606513391234180e-11 7.1237857897145897e-10  1.9999999999455449e+02 -4.3009065739267772e-11 -8.1921040808341580e-11  1.9999999999466493e+02 2.7034013808442667e-11 1.7054333376018171e-10  1.9999999999454798e+02 -6.6610649118866019e-11 1.3506482970586232e-11  1.9999999999531028e+02 -1.2715601000695895e-10 -2.0923889450690338e-10  1.9999999999646383e+02 5.9427399504874559e-11 7.4320141255736189e-10  1.9999999999526852e+02 -1.6285361511642361e-10 -2.2853966304416655e-10  1.9999999999538417e+02 -1.0108773242225854e-10 9.0944084574069772e-12  1.9999999999537079e+02 -7.2573520250282469e-12 1.4440251672087435e-11  1.9999999999353392e+02 -1.0543917218588683e-10 -1.8272272099544423e-10  1.9999999999346377e+02 -2.0909132792650233e-10 -5.1748582087603796e-10  1.9999999999257358e+02 -1.5188242637065112e-10 -2.1778196913526118e-10  1.9999999999264685e+02 -4.5635802117762192e-11 -8.4420112275680927e-12  1.9999999999286263e+02 7.2129563100791170e-11 7.2948883589395499e-10  1.9999999999274831e+02 -2.5390070035889597e-11 -1.3913216209355533e-10  1.9999999999286416e+02 6.1195098371302449e-11 1.9127159035282645e-10  1.9999999999274681e+02 -8.6213395048231267e-11 2.8227041912121644e-11  1.9999999999351712e+02 -1.5229362005903383e-10 -1.9837582736422775e-10  1.9999999999352730e+02 -1.9572328723884867e-10 -2.5261479350050464e-10  1.9999999999360858e+02 -1.3251334349247360e-10 2.3997543897537634e-11  1.9999999999359400e+02 -5.8793418719782637e-12 7.3233701344232982e-11  1.9999999999175921e+02 -9.4417901933375810e-11 -1.6922805521518919e-10  1.9999999999164595e+02 -2.0072603404766547e-10 -5.4140847180999712e-10  1.9999999999078736e+02 -8.8761377818801337e-11 -2.1393089538453154e-10  1.9999999999087851e+02 -3.0150526304236629e-11 -2.5701435750372470e-11  1.9999999999111236e+02 9.9034520355677755e-11 7.0982708170759706e-10  1.9999999999097977e+02 -2.2459602351113127e-11 -1.2070248661810206e-10  1.9999999999108294e+02 6.3290421583256139e-11 1.8113080236313150e-10  1.9999999999094882e+02 -2.7029449563645255e-11 6.2636829612118191e-11  1.9999999999172391e+02 -1.1195933770615985e-10 -1.7237707324879198e-10  1.9999999999173218e+02 -1.5736379803383093e-10 -1.9865703839332676e-10  1.9999999999180903e+02 -1.0032535467957239e-10 -2.8755485230202126e-11  1.9999999999185732e+02 -2.2357927484505834e-11 5.9478107651475402e-11  1.9999999999000821e+02 -6.7026910900862333e-11 -1.9234219805846763e-10  1.9999999998991314e+02 -1.6742406528546827e-10 -5.6898285231375498e-10  1.9999999998909925e+02 -1.2545144011354889e-10 -2.3733310218086758e-10  1.9999999998914728e+02 -1.9211840810818686e-11 -4.2507498169435893e-12  1.9999999998938188e+02 8.6404744998014223e-11 7.2176811150318046e-10  1.9999999998918196e+02 5.4267454165037500e-11 -9.8641348838492770e-11  1.9999999998941186e+02 9.4354012482174014e-11 1.7935539716695148e-10  1.9999999998917613e+02 2.0435089699892895e-11 5.6559090863716975e-11  1.9999999998996975e+02 -6.7361817895081552e-11 -1.9737945624847786e-10  1.9999999998997313e+02 -1.4991215712981444e-10 -2.0150683640660277e-10  1.9999999999004510e+02 -9.5313639263969559e-11 -1.7133253858819861e-11  1.9999999999003333e+02 2.6364620922756587e-11 1.8940061072205285e-11  1.9999999999529456e+02 3.1582242234627756e-11 -2.2096920259291056e-10  1.9999999999522691e+02 -7.6799740614416047e-11 -5.1240348676635499e-10  1.9999999999439183e+02 4.7034222395356388e-11 -2.3598525546991741e-10  1.9999999999442602e+02 3.1670621157831142e-11 6.7728856882008024e-11  1.9999999999467005e+02 -5.3038493477055679e-10 7.4619071270654214e-10  1.9999999999462335e+02 -2.8732396267422749e-11 -1.1904697435041789e-10  1.9999999999460047e+02 -5.5930151863313240e-10 1.4074944336634087e-10  1.9999999999457378e+02 9.1289218888366300e-11 6.6523704860275785e-11  1.9999999999528211e+02 1.9957763322057161e-11 -1.6365158152921333e-10  1.9999999999643404e+02 -5.2762857146444749e-10 7.7199271443710549e-10  1.9999999999537499e+02 3.2863942152661555e-10 -1.3802978628273460e-10  1.9999999999538969e+02 -4.8609575473146672e-11 7.1460939990990133e-11  1.9999999999640957e+02 -5.3830477392939809e-10 1.6157978625258794e-10  1.9999999999540219e+02 -1.9179341960714175e-11 1.7621065886906057e-10  1.9999999999639940e+02 -4.4254393031386721e-11 -1.1958774015346848e-10  1.9999999999352761e+02 3.6848285972322239e-11 -2.2941785249936981e-10  1.9999999999343626e+02 -4.3716776192570760e-11 -5.0241903507446792e-10  1.9999999999255178e+02 -8.2033142914690216e-12 -2.3302524400873750e-10  1.9999999999264028e+02 1.2580183882192691e-11 7.4723115699774451e-11  1.9999999999281584e+02 -5.0825473035515388e-10 7.3710714383772475e-10  1.9999999999276238e+02 -1.9712541949296109e-11 -9.6713691453294962e-11  1.9999999999280055e+02 -5.3214921241807678e-10 1.6277848645726133e-10  1.9999999999272691e+02 4.4345953634146149e-11 9.7753681661676852e-11  1.9999999999352679e+02 1.1756359212710853e-11 -1.1178666506719360e-10  1.9999999999360810e+02 2.3310881506963721e-10 -1.4815723932288090e-10  1.9999999999357871e+02 -1.9107172094294969e-11 7.2468385841353087e-11  1.9999999999365073e+02 -5.9737707365083380e-12 1.2351747426204051e-10  1.9999999999177174e+02 -8.5029296474509502e-12 -1.9808528591785403e-10  1.9999999999169279e+02 -8.0728657167345329e-11 -4.4607200049451572e-10  1.9999999999080623e+02 2.6822492607222717e-11 -2.1924844626880608e-10  1.9999999999092708e+02 7.1176857565741574e-12 1.9649877341730469e-11  1.9999999999114988e+02 -5.4534688852928826e-10 7.3801249693558544e-10  1.9999999999112720e+02 -3.9568602353327200e-11 -6.0235848924307899e-11  1.9999999999108289e+02 -5.0155879095596722e-10 1.4907691365465755e-10  1.9999999999100578e+02 7.3193440009165604e-11 5.4677111073534500e-11  1.9999999999175168e+02 9.1750305319177169e-12 -1.6607546465849114e-10  1.9999999999184945e+02 3.3898184810949621e-10 -9.9437430787307622e-11  1.9999999999181142e+02 -2.0902220006920421e-11 1.3153390064798762e-11  1.9999999999187085e+02 -1.9958702885105526e-11 1.2530757853858220e-10  1.9999999999002662e+02 6.4436241667331508e-11 -1.8043810503801216e-10  1.9999999998988932e+02 -4.1828152713495952e-11 -5.7000624651498636e-10  1.9999999998913711e+02 2.6946451906007937e-11 -2.1950270150003434e-10  1.9999999998921484e+02 9.2550300971178952e-11 3.3429656274257383e-11  1.9999999998935911e+02 -5.3561160776886777e-10 7.3207874657621180e-10  1.9999999998915357e+02 6.7555533696510824e-12 -7.3776268948519937e-11  1.9999999998936974e+02 -4.8441803439994457e-10 1.0492285610176170e-10  1.9999999998918875e+02 5.0280281079201891e-11 2.3357879716480195e-11  1.9999999999000138e+02 2.4659385259284224e-11 -1.8135226318928978e-10  1.9999999999011538e+02 2.3884754034766169e-10 -1.6180301216584186e-10  1.9999999999012087e+02 -3.9582448898382081e-12 1.2789611277831781e-10  1.9999999999009810e+02 -3.6758675687584108e-11 8.7322267085580480e-11  1.9999999999285816e+02 7.0825629091469393e-11 1.4201190797564496e-10  1.9999999999180858e+02 -3.7936027958678478e-11 1.4098446590878639e-12  1.9999999999175975e+02 -3.8766525633127979e-11 -1.8073318819889841e-10  1.9999999999176677e+02 -7.4138022917695663e-11 -3.2804142265129907e-11  1.9999999999111910e+02 7.1003203976107187e-11 1.3416045395726604e-10  1.9999999999176569e+02 -2.5539268812700292e-10 -8.1176699236900642e-12  1.9999999999271441e+02 -1.4531602533494966e-11 -4.0667120167281109e-11  1.9999999999253109e+02 -1.2513821696450756e-10 -1.0012690539998243e-10  1.9999999999351829e+02 -1.0107379863769221e-10 -9.4832590582220774e-11  1.9999999999271179e+02 2.8605246460191317e-11 -2.0848195036207462e-11  1.9999999999285529e+02 1.0964847255959805e-10 1.2345362606627708e-10  1.9999999999270619e+02 -5.8865171499560580e-11 6.4440624395924725e-11  1.9999999999348861e+02 -1.9138681182923310e-10 -1.2732640623062245e-10  1.9999999999183191e+02 -1.1503000615160736e-10 -8.7609910333179531e-11  1.9999999999176939e+02 -9.6173101020778094e-11 -1.7110843032316277e-10  1.9999999999089536e+02 -2.3672470626328663e-11 1.1969896600175155e-10  1.9999999999111864e+02 5.4257196985426408e-11 1.2029181640225410e-10  1.9999999999174176e+02 -1.8481183098659242e-10 -5.5575925524014391e-11  1.9999999999086171e+02 1.2779220306582189e-11 9.8044471822574116e-12  1.9999999999180883e+02 -2.5793594673317683e-11 4.0734951909412963e-11  1.9999999999353230e+02 -9.5315825507633905e-11 -1.2733161545482944e-10  1.9999999999254197e+02 -1.0613010587397798e-10 -9.5568706583006191e-11  1.9999999999272816e+02 -2.8971477790923781e-11 -5.3055704786466967e-11  1.9999999999285137e+02 1.1248557370871771e-10 1.5466322718696403e-10  1.9999999999276696e+02 -1.0270000846096025e-11 2.1110343564795487e-11  1.9999999999351442e+02 -9.1701762289811930e-11 -1.6223336960109332e-10  1.9999999999352661e+02 -2.1381248955283809e-10 -1.2616765924811677e-10  1.9999999999465760e+02 1.1729420097095175e-10 1.3327661071698136e-10  1.9999999999356388e+02 1.5457307572539847e-11 3.7937344167880485e-11  1.9999999999454030e+02 -2.0239751200797536e-11 1.9649227394545317e-12  1.9999999999175139e+02 -8.7981980006510178e-11 -9.9911841596112714e-11  1.9999999999075166e+02 -1.1109192657646284e-10 -9.2754070874110550e-11  1.9999999999096835e+02 4.1723864837728387e-11 1.0992145945517560e-11  1.9999999999109701e+02 1.1926085099475835e-10 1.4361426706100537e-10  1.9999999999099128e+02 -3.2750559020364834e-11 3.1331969724960007e-11  1.9999999999170234e+02 -1.2373413399980643e-10 -1.7407365354960026e-10  1.9999999999173747e+02 -1.7574605218821092e-10 -1.0852706236461952e-10  1.9999999999181918e+02 2.1385996919179426e-11 5.8861596280192874e-11  1.9999999999002426e+02 -7.4614989361423520e-11 -5.5429902240853511e-11  1.9999999998996518e+02 -1.6066648642101273e-10 -6.5531299917602852e-11  1.9999999998915598e+02 8.6935790953882205e-11 2.8856322620491162e-11  1.9999999998936434e+02 1.0546650162381447e-10 1.6293499016167669e-10  1.9999999998997342e+02 -6.0226263227302230e-11 -1.8194488902556840e-10  1.9999999999005300e+02 -1.1923388012843341e-11 8.9749543805326580e-11  1.9999999999433726e+02 -1.0517927752829486e-10 -8.4481899610637801e-11  1.9999999999535612e+02 -1.2227585806073981e-10 -6.7788880233393526e-11  1.9999999999458066e+02 -1.4282118142150689e-11 3.1151777343271406e-11  1.9999999999465501e+02 4.6660082941260560e-11 1.3773225336458973e-10  1.9999999999456909e+02 -3.9126464482631013e-11 1.7258127817727248e-11  1.9999999999533168e+02 -1.1147379885518106e-10 -1.7978500322267578e-10  1.9999999999531423e+02 -1.6099162657420409e-10 -8.4933828164784754e-11  1.9999999999545417e+02 -4.9053826802317974e-11 2.9013164887138547e-11  1.9999999999352394e+02 -8.8640300965438549e-11 -7.1271556044121035e-11  1.9999999999256463e+02 -1.0501627641905608e-10 -1.2882565846277027e-10  1.9999999999274627e+02 1.8258920575683753e-11 3.5480776282291429e-11  1.9999999999284481e+02 9.8489285533957953e-11 1.3888357193507049e-10  1.9999999999276767e+02 -6.1992229572012762e-11 7.4918038428055708e-11  1.9999999999349347e+02 -1.2123087302588766e-10 -1.9205618332626620e-10  1.9999999999353057e+02 -1.6918475625101190e-10 -7.1136121777812395e-11  1.9999999999365639e+02 -2.6588323540115940e-11 4.3880827676664644e-11  1.9999999999176862e+02 -7.4141740327595561e-11 -8.2268598014808778e-11  1.9999999999079506e+02 -1.2543745841119782e-10 -9.4200435622118733e-11  1.9999999999096767e+02 3.4829414450041340e-11 3.2412041687974739e-11  1.9999999999105808e+02 1.0610049705009742e-10 1.4717328945577385e-10  1.9999999999097608e+02 -6.9916918307408894e-12 6.0101227445396495e-11  1.9999999999172442e+02 -9.3667524883216467e-11 -1.6041651488021405e-10  1.9999999999173900e+02 -1.5059460481667559e-10 -5.0847150738094838e-11  1.9999999999183569e+02 1.7011800151063808e-11 1.4238007242239227e-11  1.9999999998999490e+02 -7.7739781335710415e-11 -5.7389742180508938e-11  1.9999999998910945e+02 -7.9548961506388805e-11 -3.9990745588653518e-11  1.9999999998920515e+02 -4.9338365643759822e-12 -1.4910818225062404e-11  1.9999999998938793e+02 7.1389327739703165e-11 1.5252424234110937e-10  1.9999999998917878e+02 -4.7886743214975261e-11 3.4690386789765497e-11  1.9999999999000033e+02 -1.0914664070147379e-10 -1.3765006278679138e-10  1.9999999998996597e+02 -1.4488324192618870e-10 -9.2694267659554135e-11  1.9999999999004660e+02 -1.6940628230953999e-11 3.9565511485283962e-11  1.9999999999434641e+02 -8.3342729703758624e-12 -8.2882833505875373e-11  1.9999999999531039e+02 5.3386063274858506e-11 -9.2405622744899070e-11  1.9999999999458538e+02 -7.4050610648437712e-12 4.0402433322126244e-11  1.9999999999461286e+02 -4.9071240022982706e-10 1.0890308343571081e-10  1.9999999999456043e+02 1.4894203369064547e-11 1.6339355070932215e-11  1.9999999999534214e+02 3.4718186827194194e-11 -2.3272865679900501e-10  1.9999999999535879e+02 2.6616111240337484e-10 -3.6462199563328129e-11  1.9999999999641514e+02 -5.0904263264211596e-10 4.5702965335193211e-11  1.9999999999541339e+02 -2.4297048390048809e-11 4.5293638236260483e-11  1.9999999999645638e+02 2.7737911704575099e-11 1.9512121654687856e-11  1.9999999999355038e+02 3.3491579401659129e-12 -1.1509916482073087e-10  1.9999999999254143e+02 -1.9567305889709362e-11 -9.0131515062279325e-11  1.9999999999279729e+02 -9.4802137270343721e-12 4.3143500882765764e-11  1.9999999999283531e+02 -4.8408159138875136e-10 1.1552573178910964e-10  1.9999999999278336e+02 -1.8755131523963005e-11 6.3768690865298914e-11  1.9999999999354853e+02 -2.3971391575387717e-11 -1.6946672928519389e-10  1.9999999999368430e+02 1.9734601046687879e-10 2.1341391320136839e-11  1.9999999999365195e+02 2.4279982920099635e-11 1.3246434978715388e-10  1.9999999999176407e+02 -1.9513824758488665e-11 -6.0495019610208293e-11  1.9999999999079208e+02 6.4132343120710594e-12 -3.8242443619205664e-11  1.9999999999104861e+02 4.8096689470183857e-12 2.5026829873032896e-11  1.9999999999104611e+02 -5.0442694574209953e-10 1.4956606546609356e-10  1.9999999999095226e+02 2.5738840800706748e-11 4.5066994335350713e-11  1.9999999999180145e+02 2.3034809999996011e-11 -1.4402391513569402e-10  1.9999999999188796e+02 2.8100095892225097e-10 4.1617237488692673e-11  1.9999999999188921e+02 -3.8693721426490175e-11 1.3924701421745387e-10  1.9999999998999633e+02 2.7319662072544927e-11 -9.6429709352935055e-11  1.9999999998908547e+02 4.2919605984115732e-11 -6.7337216911784832e-11  1.9999999998916525e+02 -1.7976755848531262e-11 3.0797212372148628e-11  1.9999999998933507e+02 -4.9652868110966088e-10 1.0963262960365564e-10  1.9999999998914905e+02 3.0251971990843143e-11 5.6358270787390055e-11  1.9999999998997981e+02 5.2563874954195589e-11 -1.3527147783880023e-10  1.9999999999008875e+02 2.4608769746239146e-10 4.2390861079972689e-11  1.9999999999007559e+02 1.9638065943063156