<?xml version="1.0"?>
<VTKFile type="UnstructuredGrid"  version="0.1"  >
<UnstructuredGrid>
<Piece  NumberOfPoints="4058" NumberOfCells="19986">
<Points>
<DataArray  type="Float64"  NumberOfComponents="3"  format="ascii">17.5 22.5 5  17.5 21.25 5  17.5 21.25 3.75  16.25 21.25 3.75  16.25 21.25 5  20 22.5 2.5  20 22.5 3.75  20 21.25 3.75  18.75 21.25 3.75  20 22.5 5  20 20 5  20 21.25 5  18.75 21.25 5  18.75 22.5 5  22.5 22.5 2.5  22.5 22.5 3.75  22.5 21.25 3.75  21.25 21.25 3.75  22.5 22.5 5  21.25 22.5 3.75  21.25 22.5 2.5  21.25 21.25 5  21.25 22.5 5  17.5 22.5 6.25  17.5 21.25 6.25  16.25 21.25 6.25  17.5 22.5 7.5  20 21.25 6.25  18.75 21.25 6.25  20 22.5 6.25  20 22.5 7.5  18.75 22.5 6.25  18.75 22.5 7.5  22.5 22.5 6.25  22.5 21.25 6.25  21.25 21.25 6.25  22.5 22.5 7.5  22.5 20 7.5  22.5 21.25 7.5  21.25 21.25 7.5  21.25 22.5 6.25  21.25 22.5 7.5  22.5 21.25 8.75  21.25 21.25 8.75  22.5 22.5 8.75  22.5 22.5 10  21.25 22.5 8.75  20 22.5 8.75  20 22.5 10  21.25 22.5 10  0 30 0  1.25 31.25 1.25  1.25 31.25 0  0 31.25 0  0 32.5 0  1.25 32.5 1.25  1.25 32.5 0  2.5 32.5 0  2.5 32.5 1.25  2.5 32.5 2.5  0 31.25 1.25  0 32.5 1.25  0 32.5 2.5  1.25 32.5 2.5  1.25 33.75 1.25  1.25 33.75 0  2.5 33.75 1.25  2.5 33.75 0  2.5 35 0  2.5 35 1.25  2.5 35 2.5  2.5 33.75 2.5  1.25 33.75 2.5  0 33.75 0  0 35 0  1.25 35 1.25  1.25 35 0  0 33.75 1.25  0 33.75 2.5  0 35 2.5  1.25 35 2.5  0 35 1.25  3.75 33.75 1.25  3.75 33.75 0  3.75 35 1.25  3.75 35 0  5 35 0  5 35 1.25  5 35 2.5  3.75 33.75 2.5  3.75 35 2.5  1.25 36.25 1.25  1.25 36.25 0  2.5 36.25 1.25  2.5 36.25 0  2.5 37.5 0  2.5 37.5 1.25  2.5 37.5 2.5  2.5 36.25 2.5  1.25 36.25 2.5  0 36.25 0  0 37.5 0  1.25 37.5 1.25  1.25 37.5 0  0 36.25 1.25  0 36.25 2.5  0 37.5 2.5  1.25 37.5 2.5  0 37.5 1.25  3.75 36.25 1.25  3.75 36.25 0  5 36.25 1.25  5 36.25 0  5 37.5 0  5 37.5 1.25  5 37.5 2.5  5 36.25 2.5  3.75 36.25 2.5  3.75 37.5 1.25  3.75 37.5 0  3.75 37.5 2.5  6.25 36.25 1.25  6.25 35 1.25  6.25 36.25 2.5  6.25 35 2.5  7.5 35 2.5  7.5 36.25 2.5  7.5 37.5 2.5  6.25 36.25 0  6.25 37.5 1.25  6.25 37.5 0  7.5 37.5 0  7.5 37.5 1.25  6.25 37.5 2.5  1.25 38.75 1.25  1.25 38.75 0  2.5 38.75 1.25  2.5 38.75 0  2.5 40 0  2.5 40 1.25  2.5 40 2.5  2.5 38.75 2.5  1.25 38.75 2.5  0 38.75 0  0 40 0  1.25 40 1.25  1.25 40 0  0 38.75 1.25  0 38.75 2.5  0 40 2.5  1.25 40 2.5  0 40 1.25  3.75 38.75 1.25  3.75 38.75 0  5 38.75 1.25  5 38.75 0  5 40 0  5 40 1.25  5 40 2.5  5 38.75 2.5  3.75 38.75 2.5  3.75 40 1.25  3.75 40 0  3.75 40 2.5  6.25 38.75 1.25  6.25 38.75 0  7.5 38.75 1.25  7.5 38.75 0  7.5 40 0  7.5 40 1.25  7.5 40 2.5  7.5 38.75 2.5  6.25 38.75 2.5  6.25 40 1.25  6.25 40 0  6.25 40 2.5  8.75 38.75 1.25  8.75 37.5 1.25  8.75 38.75 2.5  8.75 37.5 2.5  10 37.5 2.5  10 38.75 2.5  10 40 2.5  8.75 38.75 0  8.75 40 1.25  8.75 40 0  10 40 0  10 40 1.25  8.75 40 2.5  1.25 41.25 1.25  1.25 41.25 0  2.5 41.25 1.25  2.5 41.25 0  2.5 42.5 0  2.5 42.5 1.25  2.5 42.5 2.5  2.5 41.25 2.5  1.25 41.25 2.5  0 41.25 0  0 42.5 0  1.25 42.5 1.25  1.25 42.5 0  0 41.25 1.25  0 41.25 2.5  0 42.5 2.5  1.25 42.5 2.5  0 42.5 1.25  3.75 41.25 1.25  3.75 41.25 0  5 41.25 1.25  5 41.25 0  5 42.5 0  5 42.5 1.25  5 42.5 2.5  5 41.25 2.5  3.75 41.25 2.5  3.75 42.5 1.25  3.75 42.5 0  3.75 42.5 2.5  6.25 41.25 1.25  6.25 41.25 0  7.5 41.25 1.25  7.5 41.25 0  7.5 42.5 0  7.5 42.5 1.25  7.5 42.5 2.5  7.5 41.25 2.5  6.25 41.25 2.5  6.25 42.5 1.25  6.25 42.5 0  6.25 42.5 2.5  8.75 41.25 1.25  8.75 41.25 0  8.75 41.25 2.5  1.25 43.75 1.25  1.25 43.75 0  2.5 43.75 1.25  2.5 43.75 0  2.5 45 0  2.5 45 1.25  2.5 45 2.5  2.5 43.75 2.5  1.25 43.75 2.5  0 43.75 0  0 45 0  1.25 45 1.25  1.25 45 0  0 43.75 1.25  0 43.75 2.5  0 45 2.5  1.25 45 2.5  0 45 1.25  3.75 43.75 1.25  3.75 43.75 0  5 43.75 1.25  5 43.75 0  5 45 0  5 45 1.25  5 45 2.5  5 43.75 2.5  3.75 43.75 2.5  3.75 45 1.25  3.75 45 0  3.75 45 2.5  6.25 43.75 1.25  6.25 43.75 0  6.25 43.75 2.5  7.5 43.75 2.5  7.5 45 2.5  6.25 45 1.25  6.25 45 0  6.25 45 2.5  1.25 46.25 1.25  1.25 46.25 0  2.5 46.25 1.25  2.5 46.25 0  2.5 47.5 0  2.5 47.5 1.25  2.5 47.5 2.5  2.5 46.25 2.5  1.25 46.25 2.5  0 46.25 0  0 47.5 0  1.25 47.5 1.25  1.25 47.5 0  0 46.25 1.25  0 46.25 2.5  0 47.5 2.5  1.25 47.5 2.5  0 47.5 1.25  3.75 46.25 1.25  3.75 46.25 0  5 46.25 1.25  5 46.25 0  5 47.5 0  5 47.5 1.25  5 47.5 2.5  5 46.25 2.5  3.75 46.25 2.5  3.75 47.5 1.25  3.75 47.5 0  3.75 47.5 2.5  6.25 46.25 1.25  6.25 46.25 0  6.25 46.25 2.5  6.25 47.5 2.5  6.25 47.5 1.25  1.25 48.75 1.25  1.25 48.75 0  2.5 48.75 1.25  2.5 48.75 0  2.5 50 0  2.5 50 1.25  2.5 50 2.5  2.5 48.75 2.5  1.25 48.75 2.5  0 48.75 0  0 50 0  1.25 50 1.25  1.25 50 0  0 48.75 1.25  0 48.75 2.5  0 50 2.5  1.25 50 2.5  0 50 1.25  3.75 48.75 1.25  3.75 48.75 0  5 48.75 1.25  5 48.75 0  5 50 0  5 50 1.25  5 50 2.5  5 48.75 2.5  3.75 48.75 2.5  3.75 50 1.25  3.75 50 0  3.75 50 2.5  6.25 48.75 1.25  6.25 48.75 2.5  6.25 48.75 0  1.25 33.75 3.75  2.5 33.75 3.75  2.5 35 3.75  2.5 35 5  1.25 35 3.75  0 33.75 3.75  0 32.5 3.75  0 32.5 5  1.25 33.75 5  0 33.75 5  0 35 5  1.25 35 5  0 35 3.75  3.75 33.75 3.75  3.75 35 3.75  5 35 3.75  5 35 5  3.75 35 5  1.25 36.25 3.75  2.5 36.25 3.75  2.5 37.5 3.75  2.5 37.5 5  2.5 36.25 5  1.25 36.25 5  1.25 37.5 3.75  0 36.25 3.75  0 36.25 5  0 37.5 5  1.25 37.5 5  0 37.5 3.75  3.75 36.25 3.75  5 36.25 3.75  5 37.5 3.75  5 37.5 5  5 36.25 5  3.75 36.25 5  3.75 37.5 3.75  3.75 37.5 5  6.25 36.25 3.75  7.5 36.25 3.75  7.5 37.5 3.75  7.5 37.5 5  6.25 35 3.75  7.5 35 3.75  7.5 35 5  7.5 36.25 5  6.25 36.25 5  6.25 35 5  6.25 37.5 3.75  6.25 37.5 5  8.75 36.25 3.75  8.75 35 3.75  8.75 36.25 5  8.75 35 5  10 35 5  10 36.25 5  10 37.5 5  8.75 36.25 2.5  8.75 37.5 3.75  10 37.5 3.75  8.75 37.5 5  1.25 38.75 3.75  2.5 38.75 3.75  2.5 40 3.75  2.5 40 5  2.5 38.75 5  1.25 38.75 5  1.25 40 3.75  0 38.75 3.75  0 38.75 5  0 40 5  1.25 40 5  0 40 3.75  3.75 38.75 3.75  5 38.75 3.75  5 40 3.75  5 40 5  5 38.75 5  3.75 38.75 5  3.75 40 3.75  3.75 40 5  6.25 38.75 3.75  7.5 38.75 3.75  7.5 40 3.75  7.5 40 5  7.5 38.75 5  6.25 38.75 5  6.25 40 3.75  6.25 40 5  8.75 38.75 3.75  10 38.75 3.75  10 40 3.75  10 40 5  10 38.75 5  8.75 38.75 5  8.75 40 3.75  8.75 40 5  11.25 38.75 3.75  11.25 38.75 5  1.25 41.25 3.75  2.5 41.25 3.75  2.5 42.5 3.75  2.5 42.5 5  2.5 41.25 5  1.25 41.25 5  1.25 42.5 3.75  0 41.25 3.75  0 41.25 5  0 42.5 5  1.25 42.5 5  0 42.5 3.75  3.75 41.25 3.75  5 41.25 3.75  5 42.5 3.75  5 42.5 5  5 41.25 5  3.75 41.25 5  3.75 42.5 3.75  3.75 42.5 5  6.25 41.25 3.75  7.5 41.25 3.75  7.5 42.5 3.75  7.5 42.5 5  7.5 41.25 5  6.25 41.25 5  6.25 42.5 3.75  6.25 42.5 5  8.75 41.25 3.75  8.75 41.25 5  10 41.25 5  10 42.5 5  8.75 42.5 5  8.75 42.5 3.75  1.25 43.75 3.75  2.5 43.75 3.75  2.5 45 3.75  2.5 45 5  2.5 43.75 5  1.25 43.75 5  1.25 45 3.75  0 43.75 3.75  0 43.75 5  0 45 5  1.25 45 5  0 45 3.75  3.75 43.75 3.75  5 43.75 3.75  5 45 3.75  5 45 5  5 43.75 5  3.75 43.75 5  3.75 45 3.75  3.75 45 5  6.25 43.75 3.75  7.5 43.75 3.75  7.5 45 3.75  7.5 45 5  7.5 43.75 5  6.25 43.75 5  6.25 45 3.75  6.25 45 5  8.75 43.75 3.75  8.75 43.75 5  1.25 46.25 3.75  2.5 46.25 3.75  2.5 47.5 3.75  2.5 47.5 5  2.5 46.25 5  1.25 46.25 5  1.25 47.5 3.75  0 46.25 3.75  0 46.25 5  0 47.5 5  1.25 47.5 5  0 47.5 3.75  3.75 46.25 3.75  5 46.25 3.75  5 47.5 3.75  5 47.5 5  5 46.25 5  3.75 46.25 5  3.75 47.5 3.75  3.75 47.5 5  6.25 46.25 3.75  6.25 46.25 5  6.25 47.5 3.75  6.25 47.5 5  1.25 48.75 3.75  2.5 48.75 3.75  2.5 50 3.75  2.5 50 5  2.5 48.75 5  1.25 48.75 5  1.25 50 3.75  0 48.75 3.75  0 48.75 5  0 50 5  1.25 50 5  0 50 3.75  3.75 48.75 3.75  5 48.75 3.75  5 50 3.75  5 50 5  5 48.75 5  3.75 48.75 5  3.75 50 3.75  3.75 50 5  6.25 48.75 3.75  6.25 48.75 5  1.25 33.75 6.25  1.25 32.5 6.25  0 32.5 6.25  0 32.5 7.5  1.25 33.75 7.5  1.25 32.5 7.5  2.5 32.5 7.5  2.5 33.75 7.5  2.5 35 7.5  1.25 35 6.25  2.5 35 6.25  0 33.75 6.25  0 33.75 7.5  0 35 7.5  1.25 35 7.5  0 35 6.25  1.25 36.25 6.25  2.5 36.25 6.25  2.5 37.5 6.25  2.5 37.5 7.5  2.5 36.25 7.5  1.25 36.25 7.5  1.25 37.5 6.25  0 36.25 6.25  0 36.25 7.5  0 37.5 7.5  1.25 37.5 7.5  0 37.5 6.25  3.75 36.25 6.25  5 36.25 6.25  5 37.5 6.25  5 37.5 7.5  3.75 35 6.25  5 35 6.25  5 35 7.5  5 36.25 7.5  3.75 36.25 7.5  3.75 35 7.5  3.75 37.5 6.25  3.75 37.5 7.5  6.25 36.25 6.25  7.5 36.25 6.25  7.5 37.5 6.25  7.5 37.5 7.5  6.25 35 6.25  7.5 35 6.25  7.5 35 7.5  7.5 36.25 7.5  6.25 36.25 7.5  6.25 35 7.5  6.25 37.5 6.25  6.25 37.5 7.5  8.75 36.25 6.25  10 36.25 6.25  10 37.5 6.25  10 37.5 7.5  8.75 35 6.25  10 35 6.25  10 35 7.5  10 36.25 7.5  8.75 36.25 7.5  8.75 35 7.5  8.75 37.5 6.25  8.75 37.5 7.5  11.25 36.25 6.25  11.25 36.25 7.5  11.25 37.5 7.5  12.5 37.5 7.5  11.25 37.5 6.25  1.25 38.75 6.25  2.5 38.75 6.25  2.5 40 6.25  2.5 40 7.5  2.5 38.75 7.5  1.25 38.75 7.5  1.25 40 6.25  0 38.75 6.25  0 38.75 7.5  0 40 7.5  1.25 40 7.5  0 40 6.25  3.75 38.75 6.25  5 38.75 6.25  5 40 6.25  5 40 7.5  5 38.75 7.5  3.75 38.75 7.5  3.75 40 6.25  3.75 40 7.5  6.25 38.75 6.25  7.5 38.75 6.25  7.5 40 6.25  7.5 40 7.5  7.5 38.75 7.5  6.25 38.75 7.5  6.25 40 6.25  6.25 40 7.5  8.75 38.75 6.25  10 38.75 6.25  10 40 6.25  10 40 7.5  10 38.75 7.5  8.75 38.75 7.5  8.75 40 6.25  8.75 40 7.5  11.25 38.75 6.25  11.25 38.75 7.5  12.5 38.75 7.5  12.5 40 7.5  11.25 40 7.5  11.25 40 6.25  1.25 41.25 6.25  2.5 41.25 6.25  2.5 42.5 6.25  2.5 42.5 7.5  2.5 41.25 7.5  1.25 41.25 7.5  1.25 42.5 6.25  0 41.25 6.25  0 41.25 7.5  0 42.5 7.5  1.25 42.5 7.5  0 42.5 6.25  3.75 41.25 6.25  5 41.25 6.25  5 42.5 6.25  5 42.5 7.5  5 41.25 7.5  3.75 41.25 7.5  3.75 42.5 6.25  3.75 42.5 7.5  6.25 41.25 6.25  7.5 41.25 6.25  7.5 42.5 6.25  7.5 42.5 7.5  7.5 41.25 7.5  6.25 41.25 7.5  6.25 42.5 6.25  6.25 42.5 7.5  8.75 41.25 6.25  10 41.25 6.25  10 42.5 6.25  10 42.5 7.5  10 41.25 7.5  8.75 41.25 7.5  8.75 42.5 6.25  8.75 42.5 7.5  11.25 41.25 6.25  11.25 41.25 7.5  1.25 43.75 6.25  2.5 43.75 6.25  2.5 45 6.25  2.5 45 7.5  2.5 43.75 7.5  1.25 43.75 7.5  1.25 45 6.25  0 43.75 6.25  0 43.75 7.5  0 45 7.5  1.25 45 7.5  0 45 6.25  3.75 43.75 6.25 
[...]
<PointData  Vectors="u"> 
<DataArray  type="Float64"  Name="u"  NumberOfComponents="3" format="ascii">1.9999999998760970e+02 1.2500735128899048e-10 1.4362869588446254e-10  1.9999999998754018e+02 -1.6123242709607722e-11 4.4025488217189429e-11  1.9999999998730050e+02 -1.1767627428706999e-10 -2.8628640628990463e-11  1.9999999998832283e+02 -9.1555305676060960e-11 -2.2444458094119922e-11  1.9999999998831123e+02 -1.1157792307296971e-10 -1.8545188982852206e-10  1.9999999998585594e+02 1.0459004406457302e-10 1.8213951319979056e-10  1.9999999998583931e+02 -1.0253588402925521e-10 2.1160102122758587e-11  1.9999999998559508e+02 -1.2914040502525538e-10 -1.1471523355870006e-10  1.9999999998657705e+02 -6.8347608029953571e-11 -7.6338270074912683e-11  1.9999999998586122e+02 1.4681783242346512e-10 1.0286458466977947e-10  1.9999999998585002e+02 1.4042686235191873e-10 1.2114560383309794e-10  1.9999999998575672e+02 -9.8011202780132636e-11 9.4335389942386572e-12  1.9999999998655863e+02 -1.2064220717733638e-10 -1.5935881336958030e-10  1.9999999998660894e+02 -1.0159837680959599e-10 8.5603844504158353e-11  1.9999999998420685e+02 9.4541517256305048e-11 1.6434815218583876e-10  1.9999999998404712e+02 -1.2179877454437347e-10 2.2293281306730461e-11  1.9999999998393884e+02 -3.6420177522074023e-11 -1.2556874728005590e-10  1.9999999998482588e+02 -6.7554528447213045e-11 -9.5248590651073002e-11  1.9999999998415379e+02 9.4700823312471454e-11 9.3994054924809242e-11  1.9999999998481843e+02 -1.3693561355915873e-10 -8.5038736636953466e-11  1.9999999998490168e+02 -1.0126913467473813e-10 9.5397765321909637e-11  1.9999999998481601e+02 -8.4916353507567999e-11 -1.2461456611920563e-10  1.9999999998494130e+02 -7.1787211755242373e-11 1.2526918785358004e-11  1.9999999998755968e+02 -5.3415404533421646e-11 4.1686100115439883e-11  1.9999999998731488e+02 -9.1767772161833263e-11 -3.5640933393130002e-11  1.9999999998823174e+02 -6.8990430331269332e-11 -2.6479211240445460e-11  1.9999999998758099e+02 1.3768245430230367e-10 1.1452734152132449e-10  1.9999999998556802e+02 -1.2338674862638995e-10 -5.8179701636424571e-11  1.9999999998654903e+02 -9.4596102791559682e-11 -4.3636721861285022e-11  1.9999999998580611e+02 -4.7252660524878245e-11 7.7633251194037408e-11  1.9999999998584741e+02 1.1738165605208876e-10 1.1331581945771452e-10  1.9999999998651629e+02 -1.4679625470535138e-10 -8.1813111455504329e-11  1.9999999998663938e+02 -7.1505361151866145e-11 5.8135882847938115e-11  1.9999999998394532e+02 -6.2078259483806247e-11 -7.6943895011386930e-11  1.9999999998390760e+02 -1.0269009534978857e-10 -1.0798699571471202e-10  1.9999999998482832e+02 -7.8572666755511856e-11 -5.3233575020940422e-11  1.9999999998412952e+02 1.2446531855528928e-10 1.2150432825986164e-10  1.9999999998414498e+02 1.0462269750044235e-10 1.1629578862792092e-10  1.9999999998394333e+02 -9.9686597596269966e-11 5.9443826568181692e-13  1.9999999998475562e+02 -1.1793112817816682e-10 -1.5802383283339114e-10  1.9999999998479808e+02 -1.4182702654820112e-10 -7.5614716066400663e-11  1.9999999998486552e+02 -9.6502334592380684e-11 1.5646978910589708e-11  1.9999999998385587e+02 -1.2815005020011376e-10 -5.0343677140861711e-11  1.9999999998479788e+02 -8.5435476170069617e-11 -8.7844819408625607e-11  1.9999999998392147e+02 -4.2603517537748567e-11 1.9121323833872192e-11  1.9999999998410553e+02 1.0935453959456635e-10 1.0663945952905727e-10  1.9999999998480612e+02 -1.3119031354465121e-10 -6.9190517647455905e-11  1.9999999998576121e+02 -3.9253776674799632e-11 2.2783182728079077e-12  1.9999999998584374e+02 1.6727898480835675e-10 1.2675119622137896e-10  1.9999999998488235e+02 -2.7701406875636636e-11 3.8416527920897494e-11  2.0000000000064870e+02 1.6839373757342754e-12 7.6588062969999809e-10  1.9999999999897321e+02 -7.8467071872852754e-11 -1.3284991146952438e-10  1.9999999999880473e+02 -7.4738382379060997e-11 -6.0214727612847442e-10  1.9999999999987384e+02 -4.8630406241222513e-11 1.3854419137423898e-11  2.0000000000063810e+02 7.4277257122382587e-11 7.8307133677727366e-10  1.9999999999896977e+02 -3.3471104721182991e-10 -1.9083452853969653e-10  1.9999999999898156e+02 -1.8206111878064100e-10 3.0851799756435921e-12  1.9999999999831306e+02 3.2020033135786237e-11 7.4827407398898242e-10  1.9999999999804055e+02 -4.4693607682584565e-12 -7.3686812232619345e-11  1.9999999999826426e+02 -1.6008858283022026e-11 1.9039777870286993e-10  1.9999999999975512e+02 -6.1363496209102273e-11 -1.6220561748541502e-11  1.9999999999996470e+02 -1.1896999259126650e-10 -4.9032208690385521e-11  2.0000000000055695e+02 -1.9627683113418970e-12 1.7518903601120143e-10  1.9999999999896821e+02 -1.5117837191763133e-11 1.0688993740586142e-11  1.9999999999893998e+02 -1.0004175363091126e-10 -1.5229298667569461e-10  1.9999999999898634e+02 -2.7029712756200785e-10 -5.3448069613286551e-10  1.9999999999797711e+02 -1.3410099034451516e-10 -2.1787709159751385e-10  1.9999999999801153e+02 -5.8287992309419992e-11 2.1462269829263202e-11  1.9999999999824550e+02 1.3135797504626636e-10 7.4046902507484685e-10  1.9999999999818843e+02 -1.3823373867705304e-10 -9.2393361718207540e-11  1.9999999999820346e+02 1.0700517733123108e-10 2.1627863712393586e-10  1.9999999999817626e+02 -6.2698587161016463e-11 -5.9168205120411459e-11  1.9999999999903207e+02 -1.0244840904121293e-10 -5.8994439750074485e-11  2.0000000000003024e+02 -1.7213571867294251e-10 4.6624508267378444e-11  2.0000000000060120e+02 1.8809952271240113e-10 7.8662129695868966e-10  1.9999999999909718e+02 -6.5781619892127347e-11 -2.0085202618064446e-10  1.9999999999904176e+02 2.7285999033120994e-11 4.9268258103633683e-11  1.9999999999964294e+02 -1.2117615581046937e-10 -6.6277547618873970e-11  1.9999999999999039e+02 -7.7712866347308061e-11 -1.4628844466252263e-11  2.0000000000057304e+02 8.8751747522566839e-11 2.1091842297258892e-10  1.9999999999897452e+02 -8.1444927483950444e-11 1.1557896274250344e-10  1.9999999999998136e+02 -5.3012500023802576e-11 -4.2986923655894610e-11  1.9999999999719705e+02 -8.2948222006699571e-11 -1.7613480854410754e-10  1.9999999999704639e+02 -2.6407094073094595e-11 -5.4535550289488655e-10  1.9999999999713222e+02 -2.3267905237717274e-10 -2.3073885501845405e-10  1.9999999999720652e+02 -1.8045864101052528e-10 5.1957264903800457e-11  1.9999999999650220e+02 6.1565438949389831e-11 7.7472224932097600e-10  1.9999999999624714e+02 8.9804393911817370e-12 -1.3751438982191433e-10  1.9999999999650524e+02 1.2130535030659279e-11 2.2533493491590137e-10  1.9999999999719580e+02 -7.9771456759657820e-11 -2.4084359478501054e-10  1.9999999999720973e+02 -2.8880029625117293e-11 7.6297047500238476e-11  1.9999999999899725e+02 -1.0240206174543905e-10 -1.4677727224576576e-10  1.9999999999911947e+02 -2.3433869649385486e-10 -5.5196296512431408e-10  1.9999999999808810e+02 -2.4332724263060675e-10 -3.2671936131722368e-10  1.9999999999813525e+02 -8.9284210954813820e-11 -2.9986402789715688e-13  1.9999999999821310e+02 1.8224987892979008e-10 7.4994595697545315e-10  1.9999999999816350e+02 -8.3687240819785715e-11 -9.8908212846003171e-11  1.9999999999818581e+02 1.5505406647146793e-10 2.3227419536882139e-10  1.9999999999827790e+02 -6.9367956620855425e-11 2.3174369136551981e-11  1.9999999999907189e+02 -1.8194464259052711e-10 -6.0440941693841948e-11  2.0000000000005465e+02 -8.0459045742537505e-11 1.1440838829897038e-10  2.0000000000058597e+02 1.5024246889503296e-10 7.9341874880858586e-10  1.9999999999905270e+02 -1.3359167100118149e-10 -2.2184205074106616e-10  1.9999999999903986e+02 -8.0918531776903181e-11 -1.6287159915237499e-11  1.9999999999966076e+02 -5.3586795608102206e-11 -1.3618365068460537e-10  2.0000000000006975e+02 -9.9654516571942023e-11 -8.3050535600992138e-11  2.0000000000054484e+02 1.5204040581369058e-10 1.5116836116062310e-10  1.9999999999905049e+02 -7.2587963789324432e-11 5.3280933274583171e-11  1.9999999999999449e+02 -1.1734510042616162e-10 -7.5140898248257465e-11  1.9999999999719975e+02 -6.6746635944993057e-11 -1.6351589431486223e-10  1.9999999999706591e+02 -2.1179585059941170e-10 -4.6739555844332480e-10  1.9999999999616620e+02 -1.0627431542533409e-10 -2.4311335405706736e-10  1.9999999999630478e+02 -8.5996141563827362e-11 -1.1559081403259553e-11  1.9999999999644547e+02 1.3806851819804547e-10 7.3717342584162609e-10  1.9999999999629208e+02 1.0474785618715844e-11 -8.5623916501169200e-11  1.9999999999646300e+02 1.0897927432019911e-10 2.0744739320619855e-10  1.9999999999636125e+02 -3.1252237190794696e-11 9.9054515202590877e-11  1.9999999999713845e+02 -1.3838917041867956e-10 -1.2245410430804505e-10  1.9999999999715934e+02 -1.5938828857285625e-10 -2.5749061797982826e-10  1.9999999999721823e+02 -5.6659532260505285e-11 1.4745051429596936e-11  1.9999999999724204e+02 -2.5455258207053719e-11 4.9949099489901727e-11  1.9999999999542555e+02 -1.2722123807205842e-10 -1.1428397821806997e-10  1.9999999999527554e+02 3.1696375283366686e-11 -1.3957666932273665e-10  1.9999999999535086e+02 -8.1118154845933761e-11 -2.0474501575611098e-10  1.9999999999542450e+02 6.2214961822791164e-11 3.0897929067840099e-12  1.9999999999463412e+02 -9.3998677243454997e-12 1.5679336798631416e-10  1.9999999999437620e+02 3.2905602359255927e-11 5.7265081683544981e-11  1.9999999999468781e+02 9.3368241597663721e-11 1.5518613119293846e-10  1.9999999999547077e+02 -9.5474820375598264e-12 -2.8578440651939197e-10  1.9999999999536664e+02 -2.2015565304530865e-10 -8.4974052368934526e-11  1.9999999999546102e+02 -9.9855708996573898e-11 2.8507697979301682e-11  1.9999999999467386e+02 4.3728272113717667e-11 6.4198462926921874e-10  1.9999999999449429e+02 8.5039476478171895e-11 -5.6662460770559550e-11  1.9999999999545460e+02 -3.3284950450937945e-11 4.7221226063652275e-11  1.9999999999896502e+02 -8.3279525540345421e-11 -9.8742097040900942e-11  1.9999999999909991e+02 -2.3547686475025788e-10 -5.5522626246070520e-10  1.9999999999817101e+02 -2.5638066449791782e-10 -3.0537014942648218e-10  1.9999999999817189e+02 -1.2946016306177693e-10 -4.1759875786394001e-12  1.9999999999817129e+02 1.9874834022453418e-10 7.4419059776477112e-10  1.9999999999811902e+02 -5.4204795805393379e-11 -5.2163940679938144e-11  1.9999999999817371e+02 1.4139671735631261e-10 2.3396563002679790e-10  1.9999999999823609e+02 -2.4991811740326500e-11 1.7347976258350640e-11  1.9999999999906893e+02 -1.0078214449144680e-10 -1.2788601853441260e-10  2.0000000000004997e+02 -9.3357905132405599e-11 8.0316551008377733e-12  2.0000000000060496e+02 1.8334695588269942e-10 8.1236133844577628e-10  1.9999999999903514e+02 -1.0758763017074281e-10 -2.1462559110075521e-10  1.9999999999904739e+02 -7.3376854638888730e-11 2.9365897286514447e-11  1.9999999999959061e+02 -5.0523671434836534e-11 -9.1125422028791243e-11  2.0000000000000048e+02 -3.8895157228339472e-11 -9.4768277511916535e-11  2.0000000000054533e+02 1.4935876704356342e-10 1.5007121524462731e-10  1.9999999999900135e+02 -9.8238749083563772e-11 5.2102719219539007e-11  2.0000000000005875e+02 -5.2520027068690635e-11 -5.1508757610297047e-11  1.9999999999718679e+02 -9.9236829025589087e-11 -1.7874460143104664e-10  1.9999999999708825e+02 -2.6992971392991071e-10 -5.3413124214951148e-10  1.9999999999621591e+02 -1.1412222790700962e-10 -2.2270957248239990e-10  1.9999999999629208e+02 -3.9631544572158745e-11 2.1826341995636647e-11  1.9999999999649643e+02 1.4717452453015734e-10 7.4164183641738167e-10  1.9999999999636321e+02 -3.0739949062971098e-12 -9.6334918678601604e-11  1.9999999999644646e+02 9.8898884284036340e-11 1.8024172693421578e-10  1.9999999999633835e+02 -3.3340201273318541e-11 6.0113140076595415e-11  1.9999999999715132e+02 -1.1626999467751806e-10 -1.0549941692085273e-10  1.9999999999717139e+02 -1.8046426312725628e-10 -2.1394350330825072e-10  1.9999999999722391e+02 -8.4222457528775321e-11 -3.2253199146902731e-11  1.9999999999721697e+02 -8.5999378394990514e-12 8.1946685107729991e-11  1.9999999999537692e+02 -7.1297924071871260e-11 -1.6388350370371242e-10  1.9999999999523405e+02 -2.4728696773876012e-10 -4.7666146967697079e-10  1.9999999999447579e+02 -1.5786631857593482e-10 -5.0023944988689147e-11  1.9999999999444748e+02 -8.3392187468230625e-11 -5.4452412985482677e-11  1.9999999999464811e+02 1.4704707542439871e-10 7.0643273783021852e-10  1.9999999999451140e+02 -9.7858884899912155e-12 -6.5599444001645340e-11  1.9999999999462426e+02 7.1066955997890994e-11 1.7150603349533647e-10  1.9999999999441815e+02 -3.7379313136141937e-11 1.1378169645862978e-10  1.9999999999538872e+02 -1.1577370579595884e-10 -2.0363679404445499e-10  1.9999999999532716e+02 -2.0656344909088151e-10 -1.9458417889009386e-10  1.9999999999536487e+02 -9.5674852936608814e-11 -8.7898211623734422e-12  1.9999999999541228e+02 -1.9398818666847760e-11 1.0729200235635595e-11  1.9999999999353531e+02 -1.5537003085560024e-10 -4.2586825169362963e-11  1.9999999999346667e+02 6.3725381961958073e-12 1.2264023327596932e-10  1.9999999999340815e+02 -2.5752903953831643e-10 4.3795025498438659e-11  1.9999999999359630e+02 -9.9321108922244699e-11 1.6835124133378007e-10  1.9999999999286436e+02 4.2394877571489184e-11 1.1356378651681187e-10  1.9999999999267106e+02 -8.9258175614803952e-11 4.8124684585413957e-11  1.9999999999287942e+02 9.8795071626928912e-11 1.2546145575418815e-10  1.9999999999363914e+02 -8.5896870957990129e-12 -2.6505941853507825e-10  1.9999999999349973e+02 -2.4078141843580243e-10 -1.1549008705816372e-10  1.9999999999359662e+02 -1.0036154152653454e-10 7.6572038976891425e-11  1.9999999999286652e+02 6.9596041681274657e-11 6.7297318970000180e-10  1.9999999999267263e+02 6.0953034766381778e-11 -2.9328272277526735e-11  1.9999999999360548e+02 4.1492233456562578e-11 1.2505645236414057e-11  1.9999999999896914e+02 -9.6796491141844493e-11 -9.1161088322173814e-11  1.9999999999909738e+02 -2.2904979423360955e-10 -5.5963378759959382e-10  1.9999999999808438e+02 -2.2165120387562443e-10 -3.2298891544285592e-10  1.9999999999813900e+02 -7.0364802216052115e-11 6.0083945099801766e-12  1.9999999999817837e+02 1.9063515820490102e-10 7.4140870782582149e-10  1.9999999999811740e+02 -7.0024724298314255e-11 -7.8298915316501007e-11  1.9999999999814966e+02 1.6686368515161009e-10 2.0797081225546526e-10  1.9999999999821972e+02 -4.8626874790837847e-11 -1.2407452826382790e-11  1.9999999999906905e+02 -1.1521099519586292e-10 -1.3331749287577141e-10  2.0000000000003314e+02 -7.1116711860671983e-11 6.6581116368744363e-11  2.0000000000057861e+02 1.3298023158896661e-10 7.8433738954879651e-10  1.9999999999905825e+02 -1.5407917926112820e-10 -1.9573649824152267e-10  1.9999999999904966e+02 -6.1391103677711794e-11 -1.5773095461436657e-11  1.9999999999964353e+02 -6.6808529629204197e-11 -8.8433851362720164e-11  1.9999999999995788e+02 -9.3503818477981012e-11 -1.1654249375943427e-10  2.0000000000053549e+02 1.1620764007417309e-10 1.6351516574373183e-10  1.9999999999904608e+02 -7.5026769102731994e-11 4.2864412422945973e-11  2.0000000000001350e+02 -1.1463734477703936e-10 -6.7378662721625278e-11  1.9999999999720717e+02 -6.9761814789266932e-11 -1.5938529615674272e-10  1.9999999999708967e+02 -2.1291079251213451e-10 -5.0976107407278517e-10  1.9999999999613490e+02 -1.2052476647822006e-10 -2.1389435533128923e-10  1.9999999999627445e+02 -4.5151861028732676e-11 1.8939715715062182e-11  1.9999999999648549e+02 1.3954197043757229e-10 7.3224606058072417e-10  1.9999999999632558e+02 3.4317223079324443e-12 -8.1091388480259036e-11  1.9999999999644061e+02 1.0708287554427764e-10 1.6709534322525470e-10  1.9999999999631268e+02 2.4291920887167858e-11 3.0977590239074743e-11  1.9999999999716550e+02 -1.3693646841814068e-10 -1.5029710049755278e-10  1.9999999999716312e+02 -1.7163494490753003e-10 -2.0646909998479403e-10  1.9999999999718881e+02 -9.3953002367896252e-11 4.9689271627103639e-12  1.9999999999723750e+02 6.0743285035810401e-12 4.6432173918517982e-11  1.9999999999536740e+02 -1.0163681656887813e-10 -2.0624123126545901e-10  1.9999999999523732e+02 -2.1857179087727941e-10 -4.9158324418020172e-10  1.9999999999432038e+02 -1.5384402582385196e-10 -2.3499694329121588e-10  1.9999999999445217e+02 -4.9536311975919223e-11 3.4915363240285718e-11  1.9999999999465928e+02 1.3638585988514245e-10 7.1605041635087074e-10  1.9999999999449011e+02 1.0282660904026627e-11 -8.2797453355697910e-11  1.9999999999465396e+02 1.1993249628835466e-10 1.9001902258288230e-10  1.9999999999454261e+02 -4.2696067062504471e-11 5.9473589748720657e-11  1.9999999999531659e+02 -1.4109364989290480e-10 -1.5650024576000999e-10  1.9999999999532906e+02 -1.5123887968694984e-10 -2.2299010307251353e-10  1.9999999999537988e+02 -8.2364679226781343e-11 4.6916525739873400e-11  1.9999999999538255e+02 5.4740327093305751e-11 1.7184952096712049e-11  1.9999999999355822e+02 -1.1244567879983283e-10 -1.6002023324494615e-10  1.9999999999339099e+02 -2.8053200541375791e-10 -5.1031503811642360e-10  1.9999999999353213e+02 -1.1723915043613311e-10 -2.4029842074465216e-10  1.9999999999900186e+02 -1.2128607320950492e-10 -7.6722327279123322e-11  1.9999999999912637e+02 -2.4790923701700716e-10 -5.5083823779510815e-10  1.9999999999807747e+02 -2.4618371913367001e-10 -3.0551138719663688e-10  1.9999999999814671e+02 -1.0401958990125652e-10 1.7824972333904796e-11  1.9999999999820128e+02 1.6298243044781176e-10 7.5862489136125358e-10  1.9999999999817447e+02 -8.3888149963916261e-11 -1.0694035895392116e-10  1.9999999999818448e+02 1.3176247562345343e-10 1.7674186252297520e-10  1.9999999999825258e+02 -9.9592931338089739e-11 -4.7678345978508916e-11  1.9999999999908451e+02 -1.8894260426911605e-10 -1.3916657074282511e-10  2.0000000000004451e+02 -7.9800442191475712e-11 6.2241686313545035e-11  2.0000000000060990e+02 1.0909151481804306e-10 7.4753693919048063e-10  1.9999999999908127e+02 -1.5336098984904467e-10 -2.3485860086008252e-10  1.9999999999905580e+02 -9.5215996003955937e-11 1.2774968999619646e-11  1.9999999999964709e+02 -8.7475517488617651e-11 -1.0441431916649788e-10  1.9999999999998968e+02 -5.0317580579441382e-11 -9.0148160097949498e-11  2.0000000000054322e+02 9.9609089296757239e-11 1.7657935597325711e-10  1.9999999999896460e+02 -8.7631798550713293e-11 7.1245806546161763e-11  1.9999999999999892e+02 -1.2734466098561186e-10 -1.8038994838390067e-11  1.9999999999719282e+02 -7.5705067271685034e-11 -1.4016228214237748e-10  1.9999999999708567e+02 -2.1863666112635332e-10 -5.3108546462868093e-10  1.9999999999617785e+02 -1.3136644455464825e-10 -2.2219008684129970e-10  1.9999999999627914e+02 -4.2341991401440295e-11 3.8743568039479403e-11  1.9999999999647554e+02 1.1506812793544051e-10 7.3875832618212384e-10  1.9999999999634841e+02 -3.9563895774299799e-11 -8.9663938982574610e-11  1.9999999999645061e+02 9.6291790872717859e-11 1.5353997937494173e-10  1.9999999999636029e+02 -3.9162908513348814e-11 2.0095038935267426e-11  1.9999999999710852e+02 -1.3968082457087096e-10 -1.8895190666176972e-10  1.9999999999713847e+02 -1.5455149182228617e-10 -2.3732142031044273e-10  1.9999999999720188e+02 -5.9965308052145692e-11 -2.0727064419277733e-12  1.9999999999720816e+02 -2.0395443358567249e-11 -4.2633153155270826e-12  1.9999999999533819e+02 -8.5657730632465217e-11 -1.8056724482888992e-10  1.9999999999523411e+02 -2.0799351091110431e-10 -4.3745111887741949e-10  1.9999999999531039e+02 -1.2976675826513117e-10 -2.0307619055704950e-10  1.9999999999452703e+02 -4.6531517796688173e-11 1.8244269603351651e-11  1.9999999999466419e+02 1.0472062076026074e-10 1.5854029658127113e-10  1.9999999999525954e+02 -2.4489625621442048e-10 -2.0377034143123225e-10  1.9999999999537039e+02 -1.1666525554675724e-10 -2.3791391573717833e-12  1.9999999999541282e+02 -6.9186486750383946e-11 4.9273907624535368e-11  1.9999999999900837e+02 -8.4244609792700044e-11 -9.2845934578037521e-11  1.9999999999911614e+02 -2.1809900425483844e-10 -5.5821977357635185e-10  1.9999999999817683e+02 -2.3126622681537488e-10 -3.0336900921103295e-10  1.9999999999818712e+02 -4.0519538216900144e-11 1.9346919600060635e-11  1.9999999999821023e+02 1.1400035221618972e-10 7.8394916493792647e-10  1.9999999999816600e+02 -9.7207439541978581e-11 -1.2548507139913569e-10  1.9999999999818749e+02 6.7627600548740943e-11 1.8394420620903389e-10  1.999999999