<?xml version="1.0"?>
<VTKFile type="UnstructuredGrid"  version="0.1"  >
<UnstructuredGrid>
<Piece  NumberOfPoints="2334" NumberOfCells="8305">
<Points>
<DataArray  type="Float64"  NumberOfComponents="3"  format="ascii">16.689264 28.087862 4.681421  17.803272 26.916655 4.99096  17.600401 27.627192 3.75839  18.61260060579744 27.6942864314527 4.341685428840313  26.451523 35.230774 19.944649  25.613966 35.688583 18.745258  24.79000688256295 35.98583884188664 20.19630404112867  26.72166834069838 36.3839952835139 19.97621906167611  18.290852 22.609426 4.42598  17.936068 23.124485 6.088073  19.52747765750305 22.13915941555786 5.540081058334746  19.62913145401046 23.79233048425859 5.32280932844618  7.134238 38.033134 5.162254  5.471139 38.293011 6.257996  6.278216 36.958721 5.996462  6.55705123914489 37.43763158013925 7.155721224225892  19.29003 31.347061 6.649946  19.078903 32.53672 6.848762  20.516321 32.333843 7.080783  20.43282607868854 32.80534576231669 5.19786697529252  10.527554 37.101593 5.012418  10.175575 36.475452 6.27863  8.553705225564389 37.51780019517781 5.746146460656225  9.1101152320465 35.60056369797466 4.686654333314665  27.46847 37.027683 8.447929  28.88481361874772 36.8146575222373 8.947358228979347  27.60844251164943 38.40489849729772 10.15575230367535  28.12418999489543 36.27901017053824 10.32164674808402  18.913067 32.730968 1.706859  17.419348 33.317959 1.604516  17.996798 32.179237 2.285506  18.83043690729985 32.91646389052119 3.356753890621792  8.156034 20.740074 1.55544  8.058113000000001 19.195162 1.844997  8.51022 20.331377 2.851391  6.689901012542164 19.71441067171363 2.573325181111242  28.953344 40.003617 15.866525  30.604008 40.003617 14.931936  30.400665 40.003617 16.321795  29.56646941502943 38.63677745917619 14.45364556648191  22.587454 38.127758 12.54754  22.84094570126705 37.20370891429081 14.64700683436302  23.477331 38.891483 13.777725  22.353828 38.086815 14.380643  34.05059772584886 34.95316193481453 20.38016270291036  32.746849 34.025311 21.321835  32.00395264563948 35.80063188870376 19.98719219897543  32.86680140713349 34.76766033029573 18.98926829807134  14.888211 22.327982 17.749741  14.325051 22.948761 16.963799  14.805433 23.389452 18.553482  15.37642328783819 23.92669186792441 17.30954848376838  19.440363 27.979034 21.159361  18.764946 26.890524 21.838816  18.569973 28.244646 21.920042  17.86448739894618 27.87351332377404 21.58437957405533  37.631493 34.306919 13.07506  37.264107 33.280937 13.851418  36.703823 34.460148 13.793514  37.112896 34.3311 12.464367  10.327099 25.832195 7.801149  9.417182 24.226482 7.871381  9.199097 25.166599 6.939151  11.20273316973343 24.12296063450912 6.287174060556432  15.505844 31.975128 9.866263999999999  14.66376281033778 30.99524058140157 9.257669873316644  14.461843 32.790646 10.238553  14.871681 32.399639 8.950877  32.657158 34.416611 9.554452  33.58059571873815 32.20922836638618 9.353823280268672  32.573257 34.181324 10.741862  32.10854791826489 33.65448700710482 9.270663226504617  12.174349 36.687149 3.402411  13.054819 37.439819 2.723185  13.227704 35.750675 3.101428  11.9426724004209 36.27947408687604 1.744086016475644  23.262056 22.408806 21.980263  22.337645 24.037346 22.15365  23.476196 23.597576 20.498108  21.4725799779557 23.18401562022313 21.26893049229053  9.418782 36.62027 2.76151  10.139003 36.660351 1.696656  10.716097 37.658413 2.579189  10.49146381434701 35.37273828322018 2.82856372696966  25.75782942681794 35.90414230499658 13.88683529236746  26.61382243580795 34.42680803646401 12.58276737524412  25.98726370170655 35.94685253932335 11.36740677710839  26.78147361801807 36.3411635255273 13.13620601495167  38.378563 31.867853 20.219721  38.368034 30.446127 20.095911  39.263241 31.410988 21.196394  37.11907760195668 30.54414169113862 21.41232134365319  21.484169 26.913935 0.735076  22.136486 25.669546 0.03180900000000003  22.974754 26.813484 0.03180900000000003  22.44338484614154 25.45412824219603 2.114305267393645  23.817108 29.860323 20.826481  24.31809 31.287642 21.171801  24.612476 30.668098 20.290998  23.68831072633775 31.72454897295216 19.99592107806938  10.02991256033086 25.51280967127501 5.08797282303941  9.067150471649626 24.04363307613733 5.998936215734492  23.55756466007082 28.84713978579372 12.99854272077458  22.92518495574859 25.80619327418232 12.17295565577933  21.5367893584926 27.91236228161534 13.08763801591018  22.79868776478212 28.25592764093956 11.30550568262355  4.692637 30.583151 4.861573  3.597645 30.498425 3.925093  3.271394 31.200409 5.96299  3.7392 31.924501 4.6527  5.309221 28.433802 3.143211  3.788788 28.576895 3.646074  5.393256 28.362551 4.979815  4.583125 29.63793 3.774679  39.95923699999999 36.526802 25.372335  39.95923699999999 35.57716 26.803631  39.95923699999999 37.144733 27.090204  38.2982721780568 35.74560784816278 26.18786159283038  0.723676 22.247635 6.237782  1.035433 21.995855 4.719245  1.617396863766204 23.90825399866383 5.662740939954083  2.33580866482328 22.46104352038669 5.176941472232487  21.32399467801493 29.46481688486215 2.501692532608772  21.81129594242088 27.61894376984815 2.02912003714918  19.99101717260175 28.48956196332004 3.47517800293146  20.316442 29.100632 1.553422  35.593857 34.444691 15.248612  35.447247 34.770561 13.869275  34.24826043454374 33.49640356285511 13.73058101022651  34.63744 34.947651 14.502328  30.663343 30.279379 19.900694  32.426247 31.111061 21.175091  31.499683 30.853428 18.656059  31.86207744203309 32.01827914417703 20.05506144974296  2.916744 34.092014 6.696283  3.064003 34.401306 5.170222  1.772542356220217 33.47702460672362 5.233058680193142  1.348408170655507 35.24965815797942 5.69069693769211  22.267578 26.588278 9.118942000000001  23.746084 26.924934 8.923121999999999  23.119345 27.871275 8.328547  23.35406666595766 28.34368433992712 9.644246448766957  18.144348 38.558079 3.966154  19.58990445034726 36.56123088616889 3.645538595873164  19.32448472374304 37.84839367045804 1.835738256401388  19.96377088371934 38.52211425438931 3.49966911886391  31.260332 36.634502 21.044662  31.419662 34.968784 21.37789  29.707314 35.610394 21.920351  29.70971427361994 34.72271846936546 20.53220633400243  27.96043921423344 37.4917846657774 13.83244595590769  29.24849622085078 37.28939698128312 12.89556530397806  30.08678713887141 37.1914849678945 14.2278671144674  37.338814 30.16456 19.256891  37.940228 29.356333 18.69795  38.007885 29.52116 19.581272  36.70903274936603 28.8949651237339 19.33386913779368  9.998944733981187 23.52680276241333 4.976270394940078  8.391193197789486 24.84237436628321 4.885845351147332  16.467451 36.838165 0.03180900000000003  15.058802 38.076004 0.03180900000000003  14.75228358371658 37.52210097763763 1.220625024170582  15.99179873801506 38.23747978778511 1.35526893362849  26.662872 27.86867 13.427084  27.076612 26.090744 11.931489  26.26364352543284 25.22968346386975 13.55817077311996  25.23628167502299 27.27724873275373 12.43193433464872  21.175573 34.964645 14.513182  21.987892 34.394817 13.916936  21.886898 35.720978 13.834386  23.48709756623823 35.10275107937528 14.58672768734634  1.318116 28.796633 7.423093  2.304214 29.663908 6.663404  1.987873 28.078243 6.79968  1.443989443449543 29.67489401138662 5.519959937240876  24.024965 26.772093 4.412606  23.813847 27.754816 5.502519  24.977448 28.712324 4.442769  23.65320660407859 28.17129886489659 3.738320164837698  33.60593015389689 30.0130214394507 19.83448981754351  6.210875 22.979139 6.899174  7.187508 22.832134 7.868849  6.150725758812889 21.2106697593875 6.514745827047267  7.730035494617918 22.77925327767917 6.132855836571848  25.9538 39.217312 9.493107  25.940889 40.003617 10.927883  24.601568 40.003617 10.192486  24.76762246576784 38.55197084326048 10.54409749022366  19.254299 31.70097 2.241933  18.1398786279228 31.81053109879803 4.671394254067746  19.60888054445638 30.52771963507711 4.145408915266929  2.371933 40.003617 5.941247  3.420663 39.324146 5.545565  3.518383 40.003617 6.822994  2.868937018588673 38.40777353041463 7.086118923181436  4.301918388490042 38.76732505619694 8.142775428778121  5.60376 40.003617 9.540986999999999  4.827529 40.003617 7.914876  4.149047 40.003617 9.753643  13.47832 24.705887 5.561763  14.279174 23.385265 6.327134  14.743208 24.585421 6.329419  12.9916749859799 24.00806178787196 7.669752923108187  1.198119920785469 33.69055522522897 3.730652810167439  1.62176526984662 31.76625787935345 4.654284379555587  2.840045 32.38364 3.48362  5.487421 16.518658 3.45066  5.170033 15.473146 2.174929  5.138199 16.938465 1.842491  6.637669132212316 16.73707878510914 2.510879538089209  29.27266027460883 35.71956754784671 19.15783045503805  28.460796 34.416641 19.339397  30.81577637260275 34.11989692031883 18.98819598926603  39.95923699999999 36.679298 23.983852  39.95923699999999 37.903919 24.502584  38.23352081624911 37.5108632201511 25.44263330296328  13.487854 20.805481 7.40877  11.87985659528959 22.55793924587553 7.983141979917574  12.09157169533379 20.19476368153451 8.625133074498592  13.8733933499535 22.2473093539168 8.600049343955881  33.785076 37.981659 21.362135  32.605247 37.694294 21.147112  33.898376 37.314098 20.23188  32.493244 36.849606 21.425289  16.384533 24.386837 11.8185  16.62348 24.39962 10.413766  14.79075975558447 24.59500689263851 10.50515902562274  15.6349369642325 25.96118925317817 11.61605052566208  16.066685 34.909496 3.912504  15.641269 33.76136 4.809179  16.75459640245919 32.8258308105836 3.56148371650478  17.53206200961398 34.06475647870273 3.447705239652614  22.064226 36.907669 13.215612  24.01601698504129 36.57813375619959 13.55481148238246  37.441917 27.785189 23.891907  38.169254 28.675148 23.847954  38.08906208520649 26.26756093843776 23.27752071335535  37.75307828522276 27.64029158081706 21.31400812176327  6.400694 39.279545 6.490054  5.443164956425464 38.02534619565261 7.538158496659907  5.660607195491386 38.93789623218091 7.889121603402454  9.815061999999999 38.669121 11.854831  8.745260217386583 37.18636942460312 1
[...]
<PointData  Vectors="u"> 
<DataArray  type="Float64"  Name="u"  NumberOfComponents="3" format="ascii">1.3141269796504068e+02 -7.3135597421582048e+01 -6.4580171342303487e+01  9.0505862148262679e+01 -5.5491302961163456e+01 -6.5541010857509505e+01  8.8624747889979389e+01 -5.3101283269437246e+01 -4.7187485667636906e+01  9.6130425931974301e+01 -3.9837623246850228e+01 -4.4950873987550217e+01  1.5689704614414396e+02 3.4063493018168671e+01 8.9507749484710448e+00  1.1614408855275619e+02 6.8991441590328506e+01 3.1254439572843054e+00  7.4443203621019094e+01 4.1744972413772295e+01 4.4715874408316691e-01  1.1533037730871618e+02 2.0695581829253222e+00 -2.1196997938444234e+01  7.5958533070900017e+01 8.8902031925864961e+01 -4.7414632727495743e+01  8.1201233488062954e+01 1.1553517789307867e+02 -2.8934394214417352e+01  9.3128916435586021e+01 4.2430195536965222e+01 -3.0395723857729912e+01  5.4047725425734328e+01 1.5158716966366450e+01 -4.4438235621910131e+01  1.5309816454207382e+02 -8.2685024913109771e+01 -1.7581280011329744e+02  4.6626334813235576e+02 -1.2937786156646652e+02 -1.1444063619023224e+02  2.1792450227075614e+02 -1.6137956242451676e+02 -2.3340826872825377e+02  2.5146593399410651e+02 -9.4724618902456058e+01 -1.3002476375121367e+02  1.6973527672961225e+02 2.8513399618635646e+01 1.3424457485936275e+01  1.6435003256014505e+02 5.6521501239568920e+01 2.2872243302709126e+01  1.4321203601904998e+02 2.9981402485803326e+01 5.9371833142198760e+01  1.1073166101135656e+02 1.1174352356065608e+01 3.9269842298203265e+01  1.1251941456389112e+02 -1.1446225800712068e+02 -1.6272308202471444e+02  5.0315593378026307e+01 -1.5190543089262400e+02 -1.4619523017577606e+02  1.0963522604075233e+02 -9.7930044692402859e+01 -1.3087406450769669e+02  9.8305088449381344e+01 -9.9290020087121761e+01 -1.1404873847797415e+02  1.8965269227445083e+02 2.7220612577587897e+01 -9.9479672284315569e+01  1.2381359138821416e+02 2.3992249354797925e+00 -1.0232675791493195e+02  1.0070680328616332e+02 6.7559713820117129e-01 -4.4252979292128096e+01  1.2121270091398529e+02 3.7734906562621068e-01 -3.8092878401916117e+01  1.2416895706397416e+02 -3.5514014629308981e+01 -2.5149530055869104e+01  1.6636919694615526e+02 1.2528591615507656e-01 3.5132747267170700e-01  1.6092552195379935e+02 -1.9779534941575349e+01 1.6290960610365612e-01  1.2302628658683996e+02 -6.0809050840232475e+00 1.1300617021153588e+01  1.2432692555707135e+01 1.5548840595200939e+01 1.6944689740082140e+01  8.0619353455155505e+00 4.5927574462978189e+00 1.5973244058391732e+01  1.7129775352179990e+01 1.6240213596255387e+01 3.0018809911194019e+01  2.2027540685660000e+01 6.1892062161425765e-01 1.1582224575003860e+01  6.1755757243650905e+01 1.6278881247615771e+00 6.1361477421936304e+00  3.7393759197452489e+01 -1.0010030167432939e+01 8.6441970717572030e+00  3.4577870265717273e+01 -1.5030990260569197e+01 3.0207083965958423e+00  6.2958273222916247e+01 -2.3630177759957864e+01 1.6953556086952787e+01  2.4245925314969007e+01 2.1833107366655344e+01 4.6385532302688581e+01  3.8080944110084843e+01 4.0510425317145383e+01 -4.1092303066571381e+00  4.3115625206134901e+01 2.9791489295110541e+01 1.3281252203401323e+01  3.0305084643665015e+01 3.0629820297347216e+01 -3.3791895079192558e+00  1.4636197613010262e+02 -1.2165299878128188e+01 9.5822975224571806e+01  2.3853982223165769e+02 -4.3372434443852792e-01 6.0583197949273881e+01  1.8688541336769308e+02 -3.4695160491000408e+01 5.2552627779729029e+01  1.2799828493268984e+02 -5.3290655274576345e+01 5.5417414897699430e+01  9.5717516512355534e+00 6.3697114530374172e+01 4.7274503699440722e+01  1.1357211621241182e+01 6.2770414067230625e+01 5.3810140890987192e+01  -8.0915715297382924e+00 4.4825877704213866e+01 3.7846424298825902e+01  2.0042288542638705e+01 5.1203993767795417e+01 4.1693323059125177e+01  4.7294638880001834e+01 4.8712310785609617e+01 -2.3144332940212415e+01  1.2838381037388860e+01 3.3264622278232594e+01 -1.9929588947214889e+01  8.5983538198893079e+00 4.9777874912500870e+01 -1.1451845374951716e+01  2.1008442589901183e+01 5.2079079523858162e+01 4.5449031305340091e+00  2.6064365965795191e+00 7.8034839865149097e+00 9.1085710634692521e-02  -5.7968484839761141e+00 -4.4888005435096801e+01 8.1813033498543302e+00  2.7240515929901463e+01 -1.1393972613800443e+01 -5.5915656148327946e+00  7.4756617673601609e+00 2.1075651989415722e+00 -3.8391167225874274e+00  7.9957047354136122e+01 5.1100704445407779e+01 7.0247485239251503e+01  1.1073976372379609e+02 5.7274109470598262e+01 3.4912535302956371e+01  9.7958836782481612e+01 5.0120092921210833e+01 5.9516976938558102e+01  1.0067192699284668e+02 2.8663210815503295e+01 5.6437632961655417e+01  9.9344462779584703e+01 -4.4750913212824969e+01 7.5980434064145385e+01  1.0465799064837442e+02 -4.9978335442913142e+01 3.7911393241585735e+01  1.4252586803632346e+02 -7.0810601411539892e+01 9.5303409463059509e+01  1.0366057642353771e+02 -9.2600298142716042e+01 2.3774557408454669e+01  1.3047101818523706e+02 6.6051389871818342e+00 -4.6774795123396714e+01  8.2205136981902555e+01 -2.9806263979259572e+01 -3.5577205204783844e+01  1.2574630127894653e+02 -3.2692200259826585e+01 -4.3288455725288827e+01  1.2070687189667568e+02 -2.4415588570042281e+01 -5.4306888176676011e+01  1.8592816884147072e+02 -2.3823242592512230e+01 -1.2988941007994745e+02  1.8715892474888659e+02 3.7126927739538125e+01 -6.1135920808721394e+01  1.9284667065425595e+02 4.7750982975901817e+00 -5.9230068805649367e+01  1.2083642707771500e+02 1.9064207155485079e+01 -5.9726671390208551e+01  2.7668304752555638e+01 -5.3079106570618055e+00 1.0927830068716223e+02  4.2368327955412759e+01 -6.4333755921402194e+00 8.0838163011777922e+01  1.2892002951234305e+01 2.7054982814304122e+01 -1.9573626335080181e+01  4.4810582498042969e+01 1.5150969174629884e+01 3.7298363101433004e+01  1.2340496934517654e+02 -6.5760314065465522e+01 -1.4403821628681976e+02  8.0737966799363562e+01 2.4480807991597896e+01 -1.3894652774622560e+02  1.5274619257120227e+02 -3.1927046556685237e+01 -2.1416661661225615e+02  1.0937505898378484e+02 -3.0645007361206066e+01 -9.5319411927776684e+01  9.3978690177573597e+01 3.4446134136519220e+01 4.3785684962362748e+00  1.2393384483169535e+02 3.9324800367842727e+01 -4.8369921565383107e+00  1.0561627921050474e+02 2.2085468244213306e+01 1.5761856626556849e+01  1.0009347448488138e+02 1.2750114272251050e+01 7.2121549015930375e+00  7.5589059042896849e+01 -2.4735361666538545e+01 5.4894208327018944e+01  8.3920991431041898e+01 -4.9165358120603806e+01 5.4758973908524254e+01  7.4895998461319181e+01 -5.4003513781940057e+01 1.0346644468164995e+02  9.3493327821661154e+01 -3.2439289808447057e+01 5.3499548704462697e+01  5.6397873715196866e+01 -4.0009760595968658e+01 -3.8743997353088815e+01  5.2612191107522818e+01 -3.4282200977395561e+01 -2.3974948810894812e+01  6.1506430294978578e+01 -4.7225978291270110e+01 -1.0815752065753147e+01  8.0255810447043942e+01 -2.9932965696803681e+01 -4.6831929955822865e+01  3.1101500774340618e+01 1.0998574323378283e+02 1.1339574006961133e+01  1.2024338694765635e+02 1.6881372633067704e+02 1.3989507771571601e+02  1.4478332902655955e+01 1.5052164373890022e+02 3.5397867375583971e+01  6.1026047821157491e+01 1.0936724409122392e+02 4.6852941355763079e+01  8.7721104011759806e+01 2.7640407117676311e+01 6.0842305490392000e+01  9.2379179632590848e+01 3.2929196046490972e+01 4.4971466803218647e+01  7.0940472514230308e+01 4.8235518499791240e+01 -3.0256639669572856e+01  6.0807304356900879e+01 6.0956545465781122e+00 -6.0888794581425132e-01  6.3853195002920756e+01 2.5886278874111085e+01 2.2020840955047012e+00  8.8254479015770485e+01 4.7273414719495754e+01 -6.7835154961746289e+00  7.1343597043041120e+02 -2.4290337452863673e+02 -2.0660923169648470e+02  3.0964409283317940e+02 -3.2068096548195422e+02 2.9760289721746435e+01  1.2908297664342606e+02 -2.8194028304497249e+02 -1.2252704844879173e+02  9.5650254016429244e+01 -3.5477752233259747e+02 2.0288055665214703e+01  2.3514155629254515e+02 -2.2206854657003742e+01 -1.2294946353531239e+02  3.2361870830835790e+02 -1.7685537198612633e+02 -5.5707230458093029e+01  2.9074818570792064e+02 -6.2893728115670612e+01 -6.6302782304277500e+01  4.9080187162559628e+02 -8.2818568527393055e+01 -1.2663232984384433e+02  9.4374443281096646e+01 1.4680445832795084e+00 -7.2369471229947484e+00  8.2395150014658412e+01 2.6458775675778998e+01 -7.4339433275344504e+00  8.0061273708685732e+01 -1.5720683129828480e+01 -3.1802744542222294e+00  5.3499687412259675e+01 4.3563692013403434e+00 3.1405351023339879e+01  4.7893397232498110e+01 -6.4426179939910170e+01 -3.4734094869130971e+01  4.3945584529318253e+01 -5.1637280938889937e+01 -3.8014405912503761e+01  7.3346016183669235e+01 -9.1299703057715703e+01 -3.2273694573683656e+01  6.7953940312077165e+01 -5.4318012789601212e+01 -3.3798262068623437e+01  7.0720508701967162e+01 -2.8331537568735435e+01 -2.0166935004586389e+01  6.7683717329921052e+01 -3.4305283827732616e+01 -3.2155056207481735e+01  9.0627020465894191e+01 -2.8002804338642829e+01 -3.2453008908507321e+01  7.4004674761284321e+01 -2.9919614166251407e+01 -4.2955016740303314e+01  6.4350652741334031e+01 -3.8163800156481805e+01 -4.0201454831427919e+00  6.5292051999681973e+01 -9.5801408439348705e+00 -9.3265233648031423e+00  7.8538112365966256e+01 -5.1736276973581852e+01 5.1373424806645698e+00  9.7906691697649350e+01 -3.8952696484514320e+01 -1.2902417654072162e+01  1.4921692028012640e+02 -5.9842008186374620e+01 -7.3922770514167055e+01  2.0189239037932160e+02 -6.1914804255602064e+01 -3.9996990654550189e+01  1.1119753967388201e+02 -8.9978072064030073e+01 -3.9378632412139254e+01  1.4858747201340958e+02 -6.0230470078314177e+01 -2.8366334368427076e+01  1.6872908675062099e+01 -2.2441415483470628e+01 -3.1842222832719873e+01  1.8237003405650949e+01 -8.6694512219128256e+01 -1.8015750753413965e+01  9.2861575209488365e+01 -1.1470395185713166e+02 -3.3711197507209548e+01  1.1509003154963052e+02 -1.3119161769783215e+01 -1.6650460534789456e+01  1.3688602948460110e+02 6.3906052536704209e+01 -2.5089497443626538e+01  7.0551495729667067e+01 4.9385893440902109e+01 -1.9909497463334507e+01  4.6846216643099133e+01 -1.5374383514147770e+01 3.5362703866710767e+01  7.4208226305237488e+01 3.9560348105608327e+01 -4.2530567178273797e+00  9.1256528387129606e+01 6.1901796846913442e+00 8.4207133736850935e+01  7.1818400740179698e+01 1.3543008385652118e+00 6.7684528235756702e+01  5.9645122716712692e+01 -8.4930480776574480e-01 3.6935190737014025e+01  4.5932501591839802e+01 -1.8605326788152594e+00 7.8019818261397802e+01  2.7573898033157826e+02 -7.2805396558630960e+01 -2.7122964385707515e+01  2.1998214976378046e+02 -2.1070940215020578e+01 -3.2633145771723527e+01  1.3334515170655300e+02 -5.7701178884654666e+01 -5.7397434042422020e+01  1.4018691120680097e+02 -5.4599207863375952e+01 -4.4371814156657585e+01  8.4610498349818684e+01 -1.2264603397798307e+01 1.3502686475090218e+01  7.0473821617619905e+01 -3.3728124520964315e+01 1.4742375835949007e+01  7.4894230123260272e+01 -5.0355215717215700e+01 2.2073383267092620e+01  7.9513036596738502e+01 -5.7880876950410197e+01 8.6204289473999538e+01  8.8462562608809975e+01 -6.3108260609923860e+01 6.0370125564957959e+01  1.0833528972548689e+02 -3.9515016405703840e+01 5.9987682797974678e+01  7.8807735279881598e+01 -5.0320651991165278e+01 4.9402855343141610e+01  8.5126015314377455e+01 3.0074045253878293e+01 5.4100319797076615e+01  9.3133430669272514e+01 1.8195021409519285e+01 4.1190184669960566e+01  1.2097545977896550e+02 1.7355730899623200e+01 -1.0455027048349382e-01  1.3605460026939605e+02 1.0278332887870484e+01 5.0563906746316807e+00  1.3848195741591374e+02 2.2181232314524681e+01 6.1831010226263636e+00  1.2863307480552893e+02 2.1887307289059986e+01 1.9159026481147183e+01  2.7153237818959703e+00 3.9632541323817961e+01 -5.6059766920114420e+01  1.6593679784943689e+01 2.0486815934130298e+01 1.0588044620978442e+01  6.3771260916599935e+01 6.9373059670033648e+00 -1.9342058782353011e+01  5.6457162449337503e+01 4.4770943006774502e+01 -3.2970423292087936e+01  4.0284816230298198e+01 8.8354902868871321e+01 -3.4852700586789879e+01  5.8506483257729535e+01 8.9245722240796766e+01 -3.6608058161193469e+01  2.2864087459541793e+01 5.9997156547556941e+01 -3.7762344875507765e+01  5.5435588186478988e+01 6.7129069727872306e+01 -1.9650606347426613e+01  1.7858665763781826e+01 -1.6356931060351994e+02 1.8282452820491464e+01  7.8442427409464898e+01 -2.3569160619827704e+02 -6.8269281859704805e+01  5.4830089959991000e+01 -1.9933843827556856e+02 -7.1780557322248470e+01  1.2230328292025401e+02 -2.2673507563103590e+02 -2.1647965756688006e+01  5.8013634703890816e+01 -1.1979031277108431e+01 -6.4239348608698009e+01  4.1069168945049952e+01 4.2420928927370888e+01 -5.1138900574373403e-01  1.8036310198858303e+01 1.4897553036048794e+00 -5.3335675806121383e+00  5.8146843434560793e+01 -1.5331872084161969e+01 -2.1207199973152719e+01  1.1123434939309068e+02 -8.0226671288023880e+01 1.9820129735484290e+01  8.0684634032474037e+01 1.8113164160497796e+01 2.3900722780484056e+01  8.5875427855052166e+01 3.9810171138212127e+01 -9.2839786672378093e+00  5.7728249277335586e+01 -3.3161360732539142e+00 1.5460539666330071e+00  8.1342792146710067e+01 2.3585806930296229e+01 2.4175040374183258e+01  1.5094670313680015e+02 1.2211217663650361e+01 1.5612529719534738e+00  9.6250710599195727e+01 3.3589038748803075e+00 5.9800625649531201e+00  1.0804992262441807e+02 5.9524618205896100e+00 5.6139067068794063e+01  1.0105143982554760e+02 1.4370027994935636e+01 3.9906296779359565e+01  1.1536890913896512e+02 -3.3639684045955384e+01 -2.8973327354453552e+01  1.4366227456871928e+02 4.0941153057302504e+00 2.0226991525885598e+00  1.1386818300436319e+02 -1.4390285445433282e+01 -8.4852559536407988e+00  7.7442060392267180e+01 -4.5133831824957875e+00 6.5620622528663290e+01  1.4006527401318931e+02 -1.0437428970282555e+01 1.1697451401946229e+02  1.7791753876773231e+02 -2.4863502791631159e+01 7.1272023468678583e+01  1.8209894436733791e+02 3.7709529963474765e+01 3.1244832351163637e+01  2.5955393977660964e+02 -2.0865050393380624e+00 -2.4504513760223908e+01  2.7069670934263974e+02 9.9495346117461310e+00 -2.3922097136058660e+01  2.8132440907992066e+02 -2.3119337245891717e+01 5.2125423918811142e+00  2.3618499449197313e+02 4.6745764849636657e+00 -7.3613383459488247e+01  1.0636967299766994e+02 9.6055644022451752e+00 6.7642605115821198e+01  1.1210714300149783e+02 -1.2859699434001510e+00 4.5699605363159549e+01  1.1963149176640424e+02 1.9875897807731103e+01 5.8911962108057594e+01  1.0294504771287212e+02 2.3895936247355049e+01 5.0347250077207740e+01  7.9619584716554982e+01 -9.2153009742572252e+01 -2.7298715825768291e+01  1.1213395875802507e+02 -1.8891544553117447e+02 -1.9012693058433936e+01  4.8747658075009383e+01 -1.8555516351678469e+02 3.5970415229500020e+01  3.8936874656619054e+00 2.6365624870621787e+01 1.5748012491705785e+01  1.3851464731784164e+01 6.6116946511359941e+01 1.2674212063569586e+01  -3.9382195412455059e+00 1.7054539150805599e+01 4.5668314906250487e+00  1.7774399679589457e+01 1.5875579928383248e+01 1.3275319209747614e+01  1.2116577041100449e+02 -6.2553822218462997e+01 -1.9466822306052453e+01  1.1173698589645819e+02 -7.8778095117105380e+01 -6.9463224198928089e+01  1.2348378959070845e+02 -6.7421625931563597e+01 -8.1259255569020699e+00  1.8520263472669043e+02 -1.1297634793458263e+01 6.1732927151808049e+01  1.5880827671984864e+02 -4.0252269742430315e+01 3.9664010477443881e+01  5.5718403723188054e+01 -4.5281287709195013e+00 3.0217662560754636e+01  1.4454451545365066e+02 1.7237181248868034e+00 -4.4068598928111964e+00  1.1659291861454119e+02 3.3006440577045993e+01 4.7999683722775778e+01  1.2656728162496232e+02 3.1294101568073401e+01 3.4805253434074686e+01  9.4341187212603799e+01 2.2219609478477722e+01 2.1377038172734519e+01  1.4726366354998865e+02 4.0327257101545541e+01 1.2646628732690317e+02  1.7689909483194890e+02 4.5187679183287905e+01 1.6938222047561285e+02  1.6943856129796515e+02 2.2527271691057027e+01 1.0733076936169880e+02  2.2721332237011740e+02 5.1519835003927810e+01 1.6228806382950165e+02  3.7527836574224878e+01 6.1168074354442673e+01 4.5831717845639595e+01  6.0201775649071266e+01 8.7151348427471589e+01 8.0437014383832910e+00  6.3725576657462980e+01 4.7916643680990923e+01 4.6762135450482930e+01  5.6272471570271414e+01 3.8388260185399112e+01 4.7205009754223774e+01  1.4263865028526271e+02 4.5299191385829253e+01 5.9234929362246191e+01  1.6090378978268575e+02 6.4412758629373144e+01 8.2052738095804365e+00  1.5408615549177222e+02 1.4548656859121751e+01 1.7863752048029646e+01  1.3419123397538758e+02 1.9733530211886915e+01 3.1134191028105285e+01  -2.1319901471536458e+00 2.6045751372172955e+01 9.1607328845010993e+00  5.5643390155099240e+01 3.5289964204958743e+01 7.5319049410721117e+00  5.1677639595153238e+01 -2.8356370358302616e+01 4.5451460468701413e+01  3.7184858818395504e+01 -3.9063626133983156e+01 2.1169603601838311e+01  5.4958057433457007e+01 -1.6731270572433647e+01 3.0271700003740310e+01  8.3831570476831232e+01 -2.8059713462369405e+01 4.2300502237830507e+01  3.2179423781796964e+02 -1.2198863575979750e+01 -1.4406100122095731e+02  3.2349355907420926e+02 -4.5553631222491042e+01 -6.1963987835957660e+01  2.9724873255281909e+02 -3.2559835875245490e+01 -4.4353020075755481e+01  3.6363066023857755e+01 -2.5875606588702674e+01 -7.5905060144576009e-01  1.3316814888822807e+02 -9.5686975796162002e+01 -1.9055740726663842e+01  7.3162709544163803e+01 -4.7652907507811740e+01 -1.4686082761614445e+01  2.3825144953822207e+01 -1.1304441750744574e+02 -3.0346315979707146e+01  2.3715975503261131e+01 -2.8854020979272509e+01 -3.5198764859148635e+00  3.0359211688703716e+00 -6.1930516733221692e+00 5.5325255506853326e+00  6.4549430800435497e+00 -1.7189772251113929e+01 -4.0411933685927846e+00  1.4276235221518723e+01 -4.2150851738415875e+00 3.5341408557761933e+00  9.0692374923503678e+00 2.6367427723742132e+01 2.7316534226008685e+01  8.8292620212497619e-01 3.4329052892372580e+01 1.3817149214105049e+01  -7.4123270547248712e+00 1.3890898821825246e+01 1.0014285764023512e+01  1.0100069439171310e+01 5.2370304938596213e+01 3.7486531594921452e+01  9.9665721664011187e+01 5.7739247543844009e+01 -2.0809709556194409e+01  7.2380247971083719e+01 7.2976237214911123e+01 -1.2898803396436190e+01  1.1199799970167358e+02 3.2278381150158602e+01 1.6847426297456281e+01  2.4493697949028459e+02 -7.6445720524967996e+01 -1.2277303074986023e+02  2.0238642435281093e+02 -1.0842848147364741e+02 9.3215412856789026e+00  1.4012714162159855e+02 -1.3614762060222984e+02 -4.4088925651709225e+01  2.1174897844666765e+02 -6.4421119705550851e+01 -1.0456410691223313e+02  1.9411383985958329e+02 1.1879489026712546e+01 9.8869790350724060e+01  1.1747371302865163e+02 2.6451516417854560e+01 -3.0966479398220930e+01  9.2633067937794806e+01 3.2881489380157758e+00 5.9845660085573407e+01  3.3132192462099233e+01 -1.1474049779989191e+00 1.3014176648497622e+02  1.2738959724004051e+01 3.1053400995751726e+01 1.2744842388550360e+02  5.8102724258839707e+01 1.2916939065716269e+01 1.3154519741779001e+02  4.3281099989066938e+01 1.0457004500739419e+01 1.2373631626519246e+02  1.3132904720333934e+02 1.8103848401486339e+01 -1.6281181474015700e+00  8.7741769375166839e+01 1.2039037701261357e+01 1.5913244618779025e+01  8.9956560591508719e+01 -7.5347176701854579e+00 -4.3981838553999246e+00  3.1744931498833832e+01 -1.0888560520796835e+02 4.3202477972618345e+00  6.8005600969501785e+01 -6.6837459886881575e+01 1.3902194093706980e+01  7.5387237394589192e+01 -7.9544465267254566e+01 8.1875252255804121e+00  5.0782299728586374e+01 -7.1107964795809409e+01 1.7579715061921572e+01  1.0858086984159996e+02 1.6334913879246397e+01 1.3155908968654375e+01  5.0501225268639473e+01 -4.7937748456107823e+00 3.2450201081010597e+01  5.4803269551835697e+01 -8.4767181326274788e+00 4.9418394819783302e+01  1.6790912172876850e+02 4.7447715689732725e+01 -1.5767031887143182e+02  1.9421807270916855e+02 3.6201007849322330e+01 -1.7315224648018977e+02  2.9616639700094294e+02 4.0990141934706784e+01 -1.5772516217545359e+02  1.8886302072828929e+0