<?xml version="1.0"?>
<VTKFile type="UnstructuredGrid"  version="0.1"  >
<UnstructuredGrid>
<Piece  NumberOfPoints="5652" NumberOfCells="22471">
<Points>
<DataArray  type="Float64"  NumberOfComponents="3"  format="ascii">15.452047096528 10.96078076570944 24.03395476588156  15.24293575328377 9.496932332770193 24.01394413874447  14.38837727145405 10.24810768425243 24.08367385229049  15.30231206876763 10.19800290109123 23.4426378381416  1.924406051635742 17.76457023620605 24.35383033752441  1.901358008384705 16.69158935546875 24.36017990112305  1.726403951644897 17.1634407043457 23.84209060668945  2.652589233739742 17.35756745117177 23.95753872534853  11.34232075310654 10.21074257491787 24.4265620156904  12.23448344386505 10.15476546945671 26.01045628217506  12.36047176741179 9.489286034207009 24.81774945309512  10.88167072924191 9.70563326606608 25.2735668689523  15.10013961791992 9.86546802520752 29.11652946472168  15.54895973205566 10.27204990386963 28.50665092468262  14.4602852615372 10.70894889723005 28.92264518513157  14.51703939445483 9.879484892892048 28.21751871562706  9.310087203979492 7.721371173858643 24.60479927062988  9.97292423248291 7.475716114044189 24.87092018127441  9.58549976348877 6.921122074127197 24.48695945739746  10.34156087118312 7.992109768550137 24.29892539168162  10.66604042053223 14.61903953552246 27.81538009643555  11.24555015563965 14.19824981689453 27.59094047546387  10.55530596588087 13.78481589847955 27.5123444764762  10.75653485685761 14.47465041964371 27.13859412317042  16.2021598815918 10.55117988586426 23.48386001586914  15.582200050354 10.81122970581055 22.74935913085938  15.85006999969482 10.21547031402588 22.92917060852051  7.789976119995117 11.18539047241211 29.67827987670898  8.096720171369878 10.11217485412798 28.93473757508606  8.826134023151869 11.2203744399638 29.26103659356571  8.215568956285097 11.70623598893587 29.00850825624036  8.987130165100098 9.657784461975098 25.34803009033203  9.436103820800781 8.987747192382812 25.18423080444336  9.802380715775623 10.01774213315135 25.84593790530892  9.840980602377057 9.919168521271057 24.56983448284268  8.006673812866211 8.921008110046387 28.10429000854492  8.869775772094727 8.730903625488281 27.35240936279297  8.277055837723376 10.19717674820791 27.26985279880178  9.518199863046158 9.41048910904998 28.02735824460177  11.09203332103188 9.678858779273376 27.46947832276498  10.83396593077862 9.40982814623557 26.40547260818859  11.76351842964487 8.593973595856344 26.69043386386788  10.45373174422561 8.73522744148719 27.27158329818336  14.88007295677775 12.84285730745697 25.57461956940949  15.95332450252848 13.16140696700694 24.50008000844247  15.99149349595859 11.67789031720354 25.09397894193135  16.61689942690744 12.66294804225788 25.63560609996814  6.82542610168457 8.639015197753906 22.26773071289062  6.895476818084717 7.597925186157227 22.13339996337891  7.834852604240322 8.057625202706058 22.95936751767414  7.913276923347549 8.022881641562234 21.38991103905194  8.010580636061444 12.34539191962828 22.00342476442048  6.926880984971718 12.78493381423147 22.2150440594688  7.763612624318715 13.12788610444558 22.13179093407237  7.368824777547657 12.24060822297531 21.08706398865316  9.129430831536162 10.94570521453547 24.18275441364845  9.264029840329959 10.96980357413879 25.06089009757186  9.631556674270318 11.98322462588415 24.05645268417616  10.47006496072468 10.70157670048179 24.12131863432229  17.56184959411621 12.76305961608887 25.46948051452637  17.10485866576364 13.57140001258279 25.99471595329857  17.2087016695706 12.3714675742573 26.93211343271421  13.91261679517224 12.35031141919064 28.14625056518598  13.59464510394087 13.34903053667684 27.65720405588187  12.69235811874542 13.04520067910942 27.3575073526902  13.34206776814507 11.9941671964907 26.71137046344617  13.67206954956055 11.82351016998291 21.80891990661621  14.32017040252686 11.19694042205811 22.20516014099121  14.32815327133776 12.35377856945881 22.51068199598064  15.03485503860558 12.02144790998002 21.95256073430797  9.703585638089274 12.33139731228631 22.49505883299444  10.52956003478526 11.4691459315213 23.41368386042431  10.44838586993007 12.55505016673735 23.03576294927089  10.50363785429271 10.94939437645665 27.52701840315639  10.65203770222048 10.49337997571323 28.77088151564225  11.24287033081055 9.964924812316895 23.10564994812012  11.15015983581543 9.192011833190918 23.08303070068359  11.00570964813232 9.337273597717285 22.23917007446289  10.46823618621341 9.895999825046276 22.80433696975755  17.45922088623047 14.33708000183105 24.92787933349609  17.36845016479492 13.40081024169922 24.98242950439453  16.58715976126929 13.66492833822887 24.99178493674335  8.878286361694336 8.697577476501465 29.36985015869141  9.346608275881067 9.908500737472236 29.49251385413682  10.2300761889131 8.808885356615313 28.81983514810799  14.27880954742432 11.30072021484375 21.50918960571289  15.20695972442627 11.02727031707764 21.62244033813477  5.796420097351074 8.987909317016602 23.54537963867188  5.623912811279297 9.034064292907715 22.71553039550781  5.032009787077012 9.879154907805528 22.8418319107321  6.105337703574584 9.826916765462711 23.02899317695087  15.85293960571289 9.923549652099609 27.84123039245605  15.36400985717773 9.441996574401855 28.32456970214844  14.97883392800616 9.456225230774177 27.34414963695113  14.60236983286933 11.72034665269495 24.12861384840946  14.76272851943288 12.90720692704118 23.6060469998355  15.02143943117747 11.76570179037365 23.04722377998351  15.54981635452537 12.29388361384494 24.05154607043536  18.31028938293457 9.641524314880371 24.96326065063477  18.00225404669057 9.037631087293121 25.73547995305623  17.58753652046745 8.603942420740047 24.52268188693609  17.11057788782662 9.63109808435097 25.13116743931156  7.026597023010254 10.62434005737305 29.32287979125977  7.799145221710205 10.30463981628418 29.94182014465332  11.25123023986816 11.63943004608154 29.97138023376465  12.19454002380371 11.80165958404541 29.69288063049316  12.02764987945557 11.26496028900146 30.2977409362793  11.49026092864932 10.85876275371799 29.81630134944007  17.39612007141113 9.412635803222656 26.91423034667969  17.33893541386229 10.04504091466775 26.1197080156251  17.20014926696527 8.543684094558047 26.05689797660248  7.953234195709229 14.3165397644043 28.10494041442871  8.270206451416016 13.97673034667969 27.31620979309082  8.025433540344238 13.39710998535156 27.89948081970215  8.759292231921643 13.41880323217007 28.43049606123263  16.16090397554172 13.24082352075001 27.00362044251546  15.73881846787066 13.82799258575184 25.74004361318168  14.85468006134033 10.78269958496094 22.55172920227051  16.10185997771952 8.715213112921624 24.96973420358388  15.53382299736237 10.10350754665566 25.84806580070572  15.95819981112678 10.12349091527538 24.40114389105818  15.01891773371072 8.917098505090079 25.17508438954337  8.494725227355957 15.98536014556885 22.14562034606934  8.528478622436523 15.68459987640381 21.36166000366211  8.034095733928947 15.30480540228998 22.22776674124283  7.34225686901161 15.89672330182677 21.15639177377791  7.486679077148438 11.6471996307373 29.03681945800781  7.987761568829969 11.39591907965599 27.85063184034751  2.001898050308228 18.59700965881348 22.5815601348877  1.922162055969238 17.8474292755127 23.36731910705566  2.661471604280802 18.5403085858386 23.53254299703437  2.8539890806046 17.26271221631654 23.04184245702784  8.079728126525879 11.40898036956787 26.39752006530762  8.596409797668457 11.36839008331299 25.76482009887695  8.316655158996582 10.69816970825195 26.11623954772949  9.201399753535494 10.78059481409903 26.4214049914808  5.555618762969971 12.47443008422852 23.30525016784668  5.133570194244385 11.89262008666992 23.98936080932617  5.963675022125244 11.69252014160156 23.74449920654297  5.29842769381009 11.04003428148757 22.94170598627761  14.96201992034912 15.92068004608154 22.80816078186035  15.14863967895508 16.1301097869873 22.16239929199219  14.94421005249023 15.42508983612061 22.14874076843262  14.23992029447747 16.50706170054288 22.63552479777804  10.60031193356628 12.82406052295203 24.49439714504106  11.45865362988707 13.90497263381248 23.81613161876195  11.87399893210713 13.41134826849558 24.99884310666942  11.65431851244989 12.85373890155175 23.54394969486742  7.198187858378017 9.410111097655221 22.93526841752541  8.171985573456888 10.24070360712189 23.4159993928769  7.314497235732063 10.85256541789193 23.08119726191634  6.799046264046677 10.13370649566641 23.46152327309408  11.851149559021 14.70487022399902 27.21270942687988  11.9819803237915 13.94110012054443 27.50362968444824  12.38305485548485 14.00032693414463 26.49588731316398  11.33989665749029 13.87864067250757 26.65489134426655  12.76801013946533 13.71401023864746 27.77881050109863  12.1400203704834 13.17753982543945 27.93457984924316  12.65237998962402 12.82783985137939 28.17396926879883  10.85639188267992 11.14195691087983 25.01563307690289  11.10511016845703 8.606155395507812 22.30596923828125  10.98141002655029 8.840250968933105 21.69820976257324  10.02782902965162 9.03972160191341 22.10504535909387  10.47496420469897 7.870434893018833 22.15130520898154  13.92043018341064 10.62055969238281 30.51358032226562  13.48776449047691 9.795064232060023 30.63314362998152  13.7351339439054 10.4352392797036 29.65951175586529  12.57904575053219 10.41891869927651 30.10825177288441  8.62459659576416 9.871131896972656 25.97652053833008  8.921786002760228 9.870546474169988 26.81216854307833  7.589203834533691 8.383454322814941 23.86885070800781  8.537661552429199 8.065678596496582 24.2140007019043  7.973803997039795 7.419760227203369 24.02560043334961  14.99151992797852 10.20365047454834 22.84605979919434  14.82835960388184 9.347000122070312 22.75839042663574  15.54563999176025 9.822742462158203 22.46150970458984  15.81796522026857 9.715661217278978 23.17812125156032  5.562938213348389 11.17751026153564 24.33036041259766  6.278518199920654 10.92366027832031 24.113
[...]
<PointData  Scalars="c_HbCO2"> 
<DataArray  type="Float64"  Name="c_HbCO2"  format="ascii">4.0232445137081750e-34  4.3711210196087730e-34  4.7005611125225355e-34  -3.1786727532357301e-34  -1.2597082515594792e-25  -1.3515021598510134e-25  7.3462287550916955e-26  9.7048223244421743e-26  4.4875362652023162e-31  -5.6794624505954617e-32  -1.5768010875215264e-31  8.7591173144423323e-31  1.6963379229988452e-34  -2.8556387233318227e-34  1.5000846873532157e-34  -7.7387085984440031e-34  -4.3574370173474993e-30  8.9720726605760324e-31  -1.9205550795304027e-30  1.7069037602905799e-30  -8.1496622557104895e-33  8.9714063489202958e-33  -6.0615758392170408e-33  2.0252324143300472e-32  -9.4859211248501740e-35  3.0880990841502225e-34  5.0954040583097154e-35  -1.2332718049379164e-33  3.1084631800527490e-33  4.0433828813143884e-34  1.9138141567318845e-33  1.9006847161262769e-30  9.6415818289054448e-31  3.2541858559497125e-31  -5.2018658923570607e-30  2.2173667024596999e-33  2.9917406336495561e-32  -1.5150879376387568e-32  -4.3782190188195503e-33  1.8711443926808132e-32  -1.2713328022049762e-31  2.1020124196519960e-32  1.2268374475000297e-33  2.3150024256171411e-33  -1.1569927918690311e-33  2.2334732980854692e-34  -2.3072926317511662e-34  3.7894898823080342e-28  -7.5936247691525123e-29  -1.7982813055786368e-28  1.5070011413351644e-30  1.6305683126883975e-28  -1.8685337194928652e-27  -1.3417557860873781e-28  5.5024678278871407e-28  1.0396963585179146e-29  -1.8518633435124030e-31  6.1116506122933579e-30  -3.0948954317125002e-30  2.8710462756483481e-35  9.7060450653415631e-35  6.4117425009037649e-35  1.4371536031652898e-33  1.3026624305814272e-33  -1.6330811976199707e-33  -1.0197120408365819e-32  1.3063049293244376e-34  1.1975270037844196e-34  -1.1968357122100239e-33  3.0426274683696532e-34  -9.4441529375265950e-30  3.6730199510069849e-30  -6.6128608092242946e-31  -1.9959964378057737e-32  2.0657126809795439e-33  2.5404461769874454e-30  2.6869898143207745e-30  3.2730725761631136e-30  -1.1011175966691834e-29  -1.2337556286210080e-34  -8.4513736543709394e-35  3.9791475689182411e-34  1.3390235071109065e-33  8.2636451122231715e-35  -1.0080186389307198e-33  -1.1501798312564364e-34  -1.1703033563073537e-34  4.9591230343525692e-26  -2.4851007827425020e-27  -7.6068149914869388e-26  8.5226917455496964e-27  -2.2097031230346857e-35  4.4836683884235942e-34  -8.5483965278222953e-34  3.6587578921050564e-33  2.2036504587387569e-33  -1.2169994764636911e-33  -3.8419769275549064e-34  -1.2520833271233240e-35  -6.2056383571259546e-36  -3.8322538121709230e-36  6.8634336764155358e-35  -1.4927561935335120e-33  -6.6125286532691085e-34  -9.6457795796551344e-34  -7.4076240148838014e-34  4.7569635192479094e-34  -5.2439769461525013e-34  -6.2613596556659602e-35  7.0296145737714490e-35  -5.9628797688572163e-35  -4.0292266192216733e-33  -2.5964400727836543e-33  5.4295582953555654e-33  -1.3595307060759269e-33  -2.4871109797368727e-34  -7.1813679910611593e-34  7.4762826544704214e-35  1.2932394948877447e-34  -9.4482775711714135e-34  1.7560972992261044e-34  -1.7387370336342794e-33  7.2558324671098234e-28  -1.4811861590695555e-29  3.3238119630232093e-28  -8.3580047115697936e-28  -1.2642795225722117e-34  -6.8169828007830459e-33  4.4705387894737170e-25  8.2729111206510179e-25  -8.4371878592740744e-26  -1.2246098028345687e-24  4.1427282753845908e-32  -6.8302722589896509e-31  -5.2002275501057448e-32  7.3316647677080274e-33  -9.5658323143840840e-26  -1.8864491178621264e-25  4.6710578619206995e-26  -7.5719014276172185e-27  -6.7029258535598982e-35  2.0641276501326963e-36  -2.4734842293245236e-35  8.3984445287421864e-35  -7.1193426823612677e-31  4.3326124319590648e-32  6.7738392181956148e-32  2.7923956732628347e-31  5.4855305158653439e-28  -1.0334601060757092e-28  2.8755419473546263e-28  8.5470471033157382e-28  -1.4868454571971241e-33  1.2286109601391074e-32  -7.0087909900143565e-33  -3.0393796653325801e-32  -1.1617180371065091e-33  1.0650993322318860e-32  1.7230400132409643e-33  -1.5665340907116252e-31  2.5325106159009158e-30  1.3954664078777464e-30  -1.6683617029854605e-30  -4.3209304449178443e-30  -2.4100811465317680e-34  -1.5790557483581356e-34  2.5829254938816962e-34  8.8198414924140220e-34  -5.2780378248074456e-31  5.5318425989576163e-32  3.2828569576449353e-28  2.2681744911808616e-29  2.4644950369451293e-29  1.8261457010482987e-34  3.4129563304066720e-34  -2.6427512444654074e-35  -8.0986830877480112e-35  -3.6472985215869063e-27  2.2767853271556177e-27  7.5059454011372814e-28  -3.0178393185008362e-28  4.4800471994816441e-25  -2.5274436608796738e-24  1.0028099537672402e-24  1.7870410294803144e-25  -4.8019635911069997e-32  -1.0957052677134413e-32  -8.9300732049578421e-34  1.0898389707536518e-34  -3.5239460622575770e-35  -9.6100658161826788e-35  -8.8580021096164137e-32  -9.5215328316825182e-32  2.8278158300368608e-32  1.8994651432150629e-32  6.0199828768046708e-32  -6.0823910953756860e-31  -1.3335476746760978e-32  -7.1217572091783247e-30  3.4723907691511975e-29  8.0950491543033998e-29  -6.2201904336588797e-30  8.2186477468932589e-33  5.7032788960429265e-32  -8.2967880825209990e-35  -8.9487390538925260e-35  -3.3831008649293068e-35  1.2083573702337759e-34  1.5046965084734508e-26  1.1889384902020190e-27  -1.0554968871516879e-26  -5.5789249479045271e-26  2.2983685088172296e-26  -8.9580847443540885e-27  -3.7674833177419522e-25  4.6509035709907734e-25  1.4460490434928525e-25  -2.6954496813919250e-33  -7.4410850597133054e-29  3.0962987671690694e-29  -1.0209751138010271e-33  -2.9941377614639415e-34  2.6413544715054398e-30  -2.2632519905485861e-30  -1.9348318820805631e-30  4.7664548961062316e-34  4.4192565408065620e-34  -1.6371064885625500e-28  -2.4872309572646094e-29  -4.7358709093473956e-29  2.5593456128577873e-34  -1.4203853961310442e-35  -2.2263580390546979e-37  5.7839485035450816e-35  1.5155084400229448e-34  -3.0224551068748856e-35  -1.4717580085717657e-35  4.2792824151291137e-26  2.0304667199671574e-26  -1.6209810493577009e-27  -8.1029555578397382e-27  -2.6032844937555118e-32  -3.9484298969988653e-33  3.9528761291938872e-27  -2.1390660930398321e-27  -3.4082652684610614e-28  1.3798921031535304e-34  3.2945953201502936e-34  1.4592276015161941e-35  1.6326541893855102e-34  8.2036595870145406e-34  3.3192719668626931e-34  -3.7110865380428133e-34  -5.5613996793280117e-34  8.1566913253834130e-30  -1.9869240927088028e-30  7.0598784818828259e-30  1.3974349411821498e-29  -2.0552836695729502e-34  -3.4252623225772335e-35  -7.7219399505269905e-31  -1.2790796177845058e-30  2.7839882917082953e-31  -2.8775971851296686e-25  8.5497472557231967e-25  -1.1482449208203576e-25  2.4294137621188981e-30  -7.5840169598030918e-31  -4.9246669822006563e-28  -1.9532630498086658e-28  -6.9065773850586791e-29  8.3854071323165328e-28  -1.9106175456680788e-32  -4.1032239076676424e-33  -4.6322402501555021e-31  1.7357762926545686e-30  -1.8026826438810762e-30  -6.7965699977542234e-31  4.3142051369567629e-34  -4.2124962112394209e-34  -1.0490419031473644e-33  2.4953086784659408e-33  -6.7324785459170816e-34  -8.1942989510539427e-34  -3.4329334027536668e-33  6.4161098310214459e-33  -3.4552935473357975e-28  4.5522033950823727e-29  -6.3942993033204530e-28  2.5155104094087071e-26  1.4608666184736750e-27  -6.5013165584423145e-27  1.1479626737415200e-30  1.4583172955087650e-31  7.4648020012575464e-31  -4.4624106270672366e-35  -2.4642506384056421e-35  -2.2175692527934450e-34  2.9665762281256272e-35  -9.3379412603178864e-29  7.5141792095670970e-35  -2.4480698733533532e-36  -7.0357841123402933e-33  4.9475027152696860e-33  2.5817712884079841e-33  2.9350253547040855e-31  -4.4444928868256116e-31  1.2657336592191367e-30  4.9395151903436266e-31  -2.8456540254229169e-31  1.1417521469322398e-31  4.8686900926072220e-31  5.0930365839653125e-32  6.7530532298149489e-33  4.9204905624634820e-32  -9.7840377181034231e-32  -1.7730681849816157e-32  -1.0723824893861136e-34  6.1515433078325314e-31  -9.2759561454597570e-33  1.6289003416279350e-30  -1.2431007395548756e-33  -9.1697501942298272e-34  -3.9593984422487877e-35  -1.0169903280460209e-31  1.3634930642417971e-33  1.2129159448995067e-33  -1.8648143375438050e-33  2.2688058561986223e-33  2.5560191315451006e-33  2.8031649342517322e-33  -3.4028697339678871e-33  -9.1102324153416455e-31  6.4518622526286120e-36  -1.0894686824839850e-35  3.7417831108162270e-36  -3.8438069006361753e-30  -6.7239468816801506e-29  2.1579150854796481e-29  3.4479152019686387e-29  -5.7995216695799760e-27  3.6037698313872590e-28  -1.3571716074632027e-29  7.3169376928970352e-34  -1.2271288954740603e-33  -2.2115143999400561e-32  3.2723434030422643e-33  -1.9049542798163978e-32  1.5228213019659471e-31  -2.2659828179352287e-31  -2.3910943905634904e-31  7.0215221207086132e-32  -1.0353781733843843e-32  5.0656314917868722e-33  -1.5235772762846591e-33  3.5583978244363787e-31  -4.7772477295476175e-31  -2.6749533232428269e-33  6.2758038178781077e-33  1.7875946635049525e-33  -2.3722595286122710e-34  -1.3985894508649059e-34  1.0942611994571597e-26  -3.3751239918790495e-27  9.3200242080816620e-26  -4.1362639619362829e-25  2.2459302315203725e-26  4.3057184914192309e-34  -3.6103696279131229e-34  -5.7307754024561644e-35  2.4475503096728829e-34  1.4036156881453867e-33  1.2912535190183074e-33  -7.5051461182728983e-34  -1.0636628445092488e-33  1.6343673038020573e-32  -6.3887890943501701e-33  1.7370611827331435e-32  2.2343649752258846e-30  8.3439544748784925e-31  1.4358070343338822e-32  -1.0665900208970409e-29  -3.4661810317094853e-29  2.7061645795037719e-35  1.6234296576047301e-31  -4.1489308823601622e-32  3.5446822620770847e-32  -3.2833755638193479e-29  -3.0116170492788334e-30  -1.6596227525331294e-31  -6.3915543968729800e-32  1.8964689728490593e-31  -3.6574340189841093e-25  -2.5889175415035160e-35  8.2907609571211784e-37  4.0987272127384012e-36  1.9954432555969816e-32  -7.8700076573683054e-33  -5.5056612873688096e-33  8.5271929627001694e-31  -7.0239999288973857e-30  -2.2709825406930449e-30  1.6876474349351496e-25  2.1587388229680057e-25  9.8104398660676738e-26  -1.0414428608292977e-24  2.9491486141193213e-34  -1.2294868349042348e-34  -4.3989160229921720e-35  1.0113107168098000e-33  -1.6836405124029207e-33  3.0446947661205325e-34  -4.7713974010762240e-34  -5.9450485688794079e-31  -5.2520556455267436e-33  1.5885756775672462e-31  -2.5176331924957774e-30  5.7080542446087024e-31  -1.1022470156485523e-26  -1.0936320414332278e-26  -3.9852585327319903e-27  1.1004808088825395e-36  -5.0640980824950956e-36  1.6477206421906205e-34  3.2231943483103869e-34  -4.9548413560289086e-34  -1.9284649754564179e-35  5.5017970697992795e-35  8.6291294835714281e-35  -2.3009901061851697e-34  1.0307581099098859e-33  8.6661210090948313e-34  9.0445164961939603e-29  -4.2163281451516724e-30  8.0580577199846490e-30  -2.2346731370589162e-34  8.2828069370684949e-30  -1.6045698295404401e-34  1.1312726463487626e-33  6.9218642299373674e-33  3.1286030753547480e-29  6.2617111875509462e-29  -2.4733509661557518e-34  6.6483663134970394e-25  -8.8175213968455056e-35  1.7632739558590653e-35  1.4223105566701430e-30  2.6224827182884878e-35  -5.9800673087856839e-36  -1.2625798350644511e-35  1.2245596168224630e-35  -1.6527114827039489e-32  1.3080513519551196e-32  7.0849751649725990e-34  -2.7413829810854049e-25  -1.2962825072998587e-25  5.4681043699429889e-25  1.8449482824104163e-35  7.0903573196531802e-35  -6.4503589258846404e-35  -1.4493459859075179e-32  2.1493149382453921e-35  -4.0371246898825390e-29  1.1566942875390088e-29  2.0891823590540738e-30  -3.3128893092085061e-29  -4.9106316706732100e-29  2.4570661819611441e-35  -1.5961514370410207e-35  4.9032191174484108e-36  -1.2252020925347098e-30  -3.8625803877114332e-30  -8.4891814595782181e-37  -5.2688757328686996e-31  -3.8664826782819101e-28  6.3506738766888630e-28  1.1527497387767610e-27  -1.7086833253132915e-28  -3.3570471699126883e-29  -1.8016713914192066e-34  9.7485317770844493e-35  -2.5052927568676862e-34  -2.2893224290455933e-32  3.0309851733638834e-34  -1.1607646983535293e-34  -1.8582116566233068e-34  -1.4104349520880223e-33  7.7913311511941268e-34  7.9023024265786540e-34  -1.0803889848428520e-33  1.1481825112663523e-27  -1.3693732786400643e-28  1.8210127171756379e-34  -3.0006463612788251e-33  -2.0959322734656710e-27  -1.7442057322151177e-25  -1.2578322416668261e-33  4.9476338711117569e-27  7.3695142057122319e-29  -5.6115505986585827e-31  1.8333321107418004e-30  -1.9608566208498131e-30  -4.9833999966441414e-30  4.0330458089158141e-26  5.4000229446141505e-26  1.0750084004310690e-33  4.2630678271741884e-33  -1.4683135138408779e-34  -6.8528711158221131e-33  1.0103733135362359e-33  -6.2923514741218513e-35  -3.9739978678755387e-33  2.9640440865746914e-32  5.7298570353768033e-36  1.6837739831529657e-35  1.0665815396143395e-33  4.2269466347878848e-34  2.4739850130028213e-29  -1.0071722768157575e-26  -7.6018061399191083e-27  -8.1814580629430948e-30  8.0692996774140960e-33  2.0849639111032774e-33  -2.4231537829454945e-33  -1.1108614891608570e-33  -3.1683664021430934e-27  3.8402757046090501e-27  4.1125936742779163e-34  -4.0758603980634303e-35  1.7602528766837192e-29  1.5864481796308897e-30  4.6574190380729253e-31  -1.2195249115934549e-35  -2.4179866404953402e-35  3.9923471893418400e-34  4.5107330448835264e-30  5.1007538375900100e-25  -1.2629812923408940e-24  7.4811343852577046e-28  -5.5499280182886104e-27  -3.3193217976079255e-33  -1.1379358125167231e-34  -2.5206514419268347e-31  -8.3247222921957487e-33  -2.1329451135807972e-34  -1.6997874186304049e-28  -2.1335906025541893e-26  -1.1573977629001720e-27  -1.5360819486594826e-27  -8.5620774799504601e-28  -1.0969153490631758e-29  3.3486942651864049e-34  6.1746548053654681e-35  1.0201265600809645e-31  -5.8913917792658462e-31  2.2371608041830170e-29  3.5195545626517844e-30  -1.8032939645558428e-29  2.4418496790364765e-26  5.1860911041639095e-26  -1.6958205401475999e-31  -6.4901278862857548e-35  3.9676958090743173e-34  4.4568261944666384e-35  1.4015208622989710e-34  -2.9106387884891687e-34  2.6712279544790546e-34  1.1509188217373891e-34  1.2855304906175135e-30  1.9918049979099388e-31  -2.1041859503063868e-34  9.5818584713354326e-35  -2.1351122927435507e-34  3.1754329212358575e-35  -2.0550189591673803e-35  2.1966480541156783e-34  4.1719534782604932e-34  1.8290985411102878e-31  9.0313957008784581e-32  -3.2865201435086617e-31  -1.4522084877971511e-28  -1.4056424164872476e-25  4.8354761042334596e-26  -3.8025358397100945e-26  -4.0494629405814221e-31  2.9307246909018537e-33  -8.4739834542303689e-30  -7.3139846018106350e-34  -7.5707005150902599e-34  1.4756532004647580e-33  -4.7006043112658302e-33  -1.2923144936681604e-33  -2.9532174618168253e-33  -8.1086948504988087e-34  6.8872300873020631e-31  -1.6770818526823733e-31  -1.1360323421076018e-25  -2.1007827616206607e-32  -9.1965268331434576e-28  9.9877126127197666e-36  -5.4512062588936344e-34  -3.8879733144421545e-34  5.9017955475789493e-31  1.5821192749912604e-30  -3.1029109460592179e-32  5.5012315650010743e-31  7.7175524797839164e-31  1.3219357705563469e-33  9.6227940447964749e-34  5.0269623193846774e-35  -4.3931086619474329e-35  -2.1101353498859616e-34  -4.5408076456642953e-35  8.1975567321928581e-35  -2.8667523426219830e-35  -1.9285547179170061e-25  -1.1976516132390364e-32  3.1136300917056651e-33  5.1708035061655072e-32  -5.8793140022253617e-33  1.3624843686911054e-26  -1.8496773113103433e-25  -1.0677881169609223e-25  -4.3326128146082010e-34  -3.6996380840705428e-33  8.7144500133148048e-33  1.2080665126990246e-25  3.1313003342644060e-33  -5.7869113285787807e-34  -4.9778232405992979e-28  1.3332358935438733e-36  -1.9323502025794232e-35  3.0931679509809331e-35  -4.5589971741805036e-36  -4.3780542865795618e-29  -7.2219076620578751e-34  3.1998750060742984e-33  1.5229591299544038e-34  2.4767865321586057e-35  -1.9976367412244237e-35  -3.2733445352601355e-36  1.0181737467945714e-36  7.7526995627748801e-35  -2.1295445143289316e-32  -6.9835644693532881e-34  -1.3553380373153225e-34  5.6093565644050114e-34  -3.0387540533736616e-34  5.1176409227104312e-32  1.7776057109003491e-27  2.4962218003211552e-26  -3.1964166554267154e-34  -5.0122069356734519e-34  -7.4800012761868314e-34  -1.7549498515312348e-34  -8.6140453384566003e-30  -2.8318846223784575e-30  1.4608430559334119e-29  3.1720137521696627e-29  -1.1054467155285227e-29  2.5029465719113579e-30  1.8939199002405047e-27  4.8695661936583582e-29  1.9056136491391419e-29  -3.8051555344004906e-30  3.0402084862377516e-30  -7.2091715873429113e-31  -2.0474276672037032e-31  9.3489964648848639e-31  1.2307345344355962e-32  -1.3055115757229751e-24  2.8397054955091692e-24  7.2107871171121039e-29  -6.3485483694963101e-32  1.5832431046241833e-31  -5.1127530045006794e-34  -7.6393177387919084e-34  2.8957949657430188e-27  -1.5630525111320284e-30  -1.4134662398123323e-30  8.2651292888148922e-30  2.1125571759564769e-27  1.4788586428527727e-25  -2.0816628282993439e-31  5.4078237588931078e-28  -6.6292358627256154e-30  -2.4386921717262613e-30  -1.4473098120922813e-34  1.1356946281607574e-30  -1.0198337660950765e-28  1.8653037872749355e-27  1.8929237451246257e-30  -4.1207716730771076e-33  -3.2923008381702879e-31  -1.0811931253838683e-31  3.8259850414808141e-31  2.6703352652665087e-31  1.0242012207687286e-31  5.4507385235050974e-29  -3.8640126592166822e-28  -3.5645780117054450e-29  -7.7047137765949971e-30  -6.3964340872492976e-33  -8.0734041748874348e-29  -7.4567238021452067e-31  3.6000760854200076e-31  -5.8473186866630698e-30  2.4071095559268787e-28  -6.6678779695510228e-34  5.9518499516638738e-33  -2.9980296989504561e-33  -9.0328090346025162e-33  1.8229542141965945e-32  -2.5133777519494903e-32  9.5023358558361085e-32  -1.2722977319101649e-30  -4.4160530354671896e-35  -1.5955770751548189e-29  -9.1609313024653432e-31  4.9368535346686599e-26  2.3284201874137740e-33  2.2239177258596595e-31  2.1099037365267632e-34  1.1228466039651237e-34  4.4306587044164232e-35  3.3847428868427608e-33  5.0134491494329473e-33  7.9587603184458220e-32  -7.6668402576584431e-34  7.9115319003954277e-35  -1.4417314305054464e-30  -3.4231920719752712e-27  -1.0393848471417896e-28  5.1966490462224194e-33  -1.7341116328361519e-30  -1.3218648451490662e-33  1.2062978971976965e-23  -7.5889721761297277e-27  -6.4632947944133307e-27  4.2672675794006741e-33  -5.1815479943559496e-27  1.5350341196775178e-29  -4.7886768510176973e-30  8.7662491226607689e-31  -1.8211617224074515e-30  2.4827614951056306e-31  -3.4388270933024233e-34  -8.4324744636113737e-33  -2.3389361286876764e-31  -1.2896310268599289e-34  1.7129829076415257e-35  1.8438616186200084e-35  -2.4143747715408862e-25  1.4180831103387025e-34  -8.0801662539270976e-26  -3.8423055676147475e-28  -5.3581484050474239e-32  1.0647424883764082e-31  -2.5979678758674612e-34  9.5848531444538670e-33  -9.4666454662583810e-31  -3.1599994945548329e-24  7.7675095864597173e-25  -2.2716130216982404e-24  -5.7687233392012531e-34  3.8154994111945444e-30  -1.8122182966053815e-33  -8.6742898841807228e-26  -2.2454823298106630e-30  -4.6252575733673254e-27  9.5626655222089447e-36  8.6144377058572711e-32  1.8554343531636040e-33  -1.0549888533134804e-31  1.4898085289853221e-33  -7.1184541165662471e-34  -1.3559370216075447e-32  2.3440299164265529e-26  -8.9339184308223627e-35  -2.2458876812138523e-33  -5.4121511466453086e-35  3.2355764098222412e-33  1.0379961167833463e-34  2.1583867384096014e-25  2.5754372922809681e-25  -1.6868742703704454e-35  -1.4503958023032196e-33  5.6790117431252403e-34  -4.6473245320356262e-35  6.7394546876460810e-34  7.6525662886292078e-31  4.5827140997745896e-34  -1.1146348504660257e-25  -5.7455250374394156e-32  -5.1881923005794803e-27  -4.8352766481646843e-34  3.6460235908558303e-33  -5.8482067826472830e-28  2.1114785703370739e-34  -8.3115902192213995e-35  -2.0727817624264012e-33  1.1737795932122020e-35  -1.2724533317610399e-34  -5.4589556719980018e-33  -4.7817826044129467e-28  -7.2240372092121808e-35  -1.0903103294214255e-35  5.3779208631155954e-37  4.4619085241772654e-25  7.7046125885964689e-29  1.6539358805482701e-36  -3.2276715060847367e