<?xml version="1.0"?>
<VTKFile type="UnstructuredGrid"  version="0.1"  >
<UnstructuredGrid>
<Piece  NumberOfPoints="5658" NumberOfCells="22343">
<Points>
<DataArray  type="Float64"  NumberOfComponents="3"  format="ascii">18.05801010131836 1.980746030807495 0.1048400029540062  18.53083992004395 1.277719020843506 0.1048400029540062  18.64771047610651 1.969090266439979 0.9905686647582427  17.47012780768676 1.701508074931415 0.7608204070168626  18.23563003540039 0.4575099945068359 1.116541028022766  18.15815925598145 0.7553780078887939 0.1048400029540062  18.99453926086426 0.6830419898033142 0.6763430237770081  18.80117988586426 2.011250972747803 0.1048400029540062  17.69702403537451 2.369420829175438 1.28266923367582  18.49333000183105 0.09558500349521637 3.145654916763306  17.55331993103027 0.09558500349521637 2.723233938217163  18.33020973205566 0.09558500349521637 2.126312971115112  18.18413937052957 1.500863480860389 2.923404691430454  17.7039909362793 2.721751928329468 3.685894966125488  17.57551956176758 3.127937078475952 2.735167980194092  18.48961067199707 3.032886981964111 3.544179916381836  18.16083721739016 2.635767682785813 2.230788486273345  17.47178077697754 3.165196895599365 1.776800990104675  17.28600007003664 2.460187954552323 2.315593024504958  19.62056922912598 1.653440952301025 1.37977397441864  19.53602981567383 0.8964750170707703 1.017917990684509  19.25447082519531 1.347391963005066 0.6034340262413025  18.95021726575598 0.9627739965111395 1.63069194177998  19.42266082763672 2.115087985992432 0.651075005531311  17.92811856106248 1.292944965245128 1.750345943397716  17.73347091674805 3.189533948898315 1.113216996192932  18.99025523670714 2.884090295581587 1.606994576452914  18.26956939697266 2.860912084579468 0.1048400029540062  19.05195999145508 2.705601930618286 0.1048400029540062  19.06889084034789 1.776776247589474 2.181307911464082  17.22347068786621 2.402237892150879 0.1048400029540062  17.59886932373047 1.397984027862549 0.1048400029540062  16.98605918884277 2.993726968765259 1.170645952224731  19.68767929077148 0.7412819862365723 2.43917989730835  19.68148040771484 0.9721599817276001 1.721393942832947  19.88937950134277 1.552579045295715 2.416471004486084  19.22723960876465 0.09558500349521637 1.543951988220215  17.62359046936035 2.213248014450073 4.304525852203369  18.67819976806641 2.324219942092896 4.370869159698486  17.9892406463623 1.736614942550659 4.777002811431885  18.6827392578125 1.28498101234436 5.088818073272705  18.02889244172662 0.9904893333176586 4.353968125246128  19.12076950073242 0.09558500349521637 2.51262903213501  17.6175594329834 0.09558500349521637 3.674330949783325  18.60774993896484 0.09558500349521637 4.235197067260742  18.20400047302246 0.09558500349521637 5.193009853363037  17.64662933349609 0.09558500349521637 4.545790195465088  19.40954971313477 14.31272029876709 13.88391971588135  19.98312950134277 14.13412952423096 13.21749973297119  19.75974082946777 13.63041973114014 13.78726959228516  20.24875419895367 14.24317337493551 14.32494141432753  17.07592964172363 9.694982528686523 14.60706043243408  17.01148986816406 8.764477729797363 14.54990005493164  17.90733909606934 9.208471298217773 14.08479976654053  17.96761743893678 9.014542319353872 15.36084213746388  17.99645042419434 10.15170955657959 14.32124996185303  20.15350914001465 14.83041954040527 13.62502002716064  18.81798934936523 9.834670066833496 18.42851066589355  19.6735897064209 9.355598449707031 18.08003044128418  19.07930488529272 8.605356133624351 18.38399791912067  18.62756598920662 9.23845237978203 17.42985845518148  18.50621013506882 10.08389013423285 14.93750513514333  19.22282981872559 9.237237930297852 19.07364082336426  19.13266944885254 10.22721004486084 17.55554008483887  20.10998804731152 6.296291504613277 35.07216427648358  20.30858380118949 4.893104204485426 35.98865362336411  20.41987465662099 4.823246672232324 34.9028319526876  21.078929611489 5.596073665954918 34.92294264819895  21.16666984558105 4.133924007415771 35.12585067749023  18.45318031311035 8.879042625427246 35.53337860107422  18.80164909362793 8.563660621643066 36.34471893310547  19.36236953735352 8.821417808532715 35.30849838256836  19.41759010868901 8.147865724860097 35.87042338839154  19.74193954467773 8.290814399719238 34.78438186645508  20.2588005065918 7.730238914489746 34.77828979492188  19.66704790164989 7.292365775251902 35.62767858332684  21.21910095214844 5.262744903564453 34.16889190673828  20.29107767103694 5.476371257466354 34.47082704409466  18.50540616503915 4.209601409394397 36.29271008182338  19.50892217804935 4.050192694606118 35.22820871169485  19.4017859683008 5.377024792299474 35.53212497377826  19.13633918762207 7.179174900054932 37.20611953735352  19.73628067598978 7.224978377838417 36.76469492801816  18.85834340543732 6.667370545648653 36.23677525861149  19.9486076586981 6.271070402099733 36.49158432000954  20.4554500579834 3.780755996704102 35.31710815429688  20.93151092529297 3.597670078277588 35.95257949829102  18.62839614767633 5.697418226718655 36.36542542118185  21.42822074890137 4.6148681640625 34.59658050537109  18.97987937927246 6.228812217712402 37.42708969116211  18.71693992614746 7.879124164581299 36.71380996704102  18.42524909973145 6.908240795135498 36.81827163696289  19.21337695774305 4.721485073050974 37.12774532454124  19.98665046691895 3.140805006027222 35.85480117797852  20.63315010070801 2.893275022506714 36.58533096313477  19.66176474496783 3.472157792616993 36.58779327576112  20.65052032470703 4.627615928649902 34.20412063598633  20.08542811899675 5.54485099909918 37.06228967258642  18.30014038085938 6.062904834747314 36.93975067138672  20.3463306427002 3.925168991088867 34.52354049682617  19.37047958374023 2.334095001220703 35.9086799621582  19.77272033691406 2.164697885513306 36.56809997558594  19.0982608795166 1.342733979225159 36.08776092529297  18.60112805888055 2.551360969509187 36.59877672746497  19.524169921875 8.957921981811523 36.04988861083984  18.40275001525879 4.603332996368408 37.69865036010742  18.44364092395562 3.749585369554367 37.23163928847106  19.14915084838867 5.334949016571045 37.95563888549805  18.41340065002441 5.270916938781738 37.30012130737305  20.84836959838867 5.96611499786377 34.16732025146484  17.67905044555664 4.482658863067627 37.33798980712891  18.00106048583984 4.007146835327148 38.05488967895508  8.188456535339355 1.165763020515442 25.32064056396484  7.374207019805908 0.6876109838485718 25.27131080627441  8.319725036621094 0.09558500349521637 25.27935981750488  7.744144916534424 0.09558500349521637 24.65199089050293  18.15447998046875 0.6816989779472351 30.55500984191895  18.55550956726074 0.6429020166397095 29.72613906860352  18.23812631453073 1.819471798432995 29.84012695829485  17.65732601528248 0.690538555805599 29.68726602252496  15.452047096528 10.96078076570944 24.03395476588156  15.24293575328377 9.496932332770193 24.01394413874447  14.38837727145405 10.24810768425243 24.08367385229049  15.30231206876763 10.19800290109123 23.4426378381416  10.62491035461426 8.517734527587891 26.5118408203125  11.17844009399414 7.976909160614014 25.8271598815918  11.76351842964487 8.593973595856344 26.69043386386788  11.83830226047937 7.765695745501291 26.2495332633479  13.64352035522461 0.09558500349521637 28.74506950378418  14.48805999755859 0.09558500349521637 29.18498992919922  14.34523010253906 0.09558500349521637 28.10177040100098  14.26860186363399 0.8962998893940018 28.76304024589591  17.02544975280762 9.71726131439209 22.62701988220215  17.70636940002441 9.166142463684082 22.92539978027344  17.44457054138184 9.441779136657715 22.20199012756348  17.24413670523961 8.686283092001378 23.11706573022736  9.516697495174787 3.361655800729649 18.7117940637308  7.773248684704234 2.792522100254617 19.59741631533982  8.09777957171627 4.159760009283453 18.81990084457015  9.152567852576004 4.408923062264841 19.97710349125446  11.34232075310654 10.21074257491787 24.4265620156904  12.23448344386505 10.15476546945671 26.01045628217506  12.36047176741179 9.489286034207009 24.81774945309512  10.88167072924191 9.70563326606608 25.2735668689523  18.93788909912109 8.973540306091309 20.10206985473633  19.21762084960938 8.337586402893066 20.50494003295898  19.56550025939941 8.630832672119141 19.63917922973633  19.05515083555661 7.790209132518613 19.79520700246171  15.10013961791992 9.86546802520752 29.11652946472168  15.54895973205566 10.27204990386963 28.50665092468262  14.4602852615372 10.70894889723005 28.92264518513157  14.51703939445483 9.879484892892048 28.21751871562706  18.96104049682617 7.825235843658447 26.68133926391602  19.79015390121104 7.020314677930913 26.57189602545551  18.62636265863724 7.502942463600287 25.81784977505643  18.38425400898137 6.9154182567824 26.65382549655616  9.022880554199219 4.869105815887451 23.39876937866211  9.596207618713379 4.258718013763428 23.61586952209473  8.937583923339844 3.994426965713501 23.16554069519043  9.61470009363652 4.38965288473522 22.96849665201074  18.41871733131307 2.181151151254709 28.32657805006649  18.28440285915734 3.530964867688151 29.40069084485169  19.35220921895721 2.801268866417136 28.44053197439563  18.85950943430372 2.567317065668881 29.42444227549026  10.65577983856201 5.681509017944336 26.8709602355957  10.35818004608154 4.973543167114258 27.11243057250977  10.87691974639893 4.989037990570068 26.59758949279785  11.01518645242453 4.716271982191934 27.26412996070284  9.310087203979492 7.721371173858643 24.60479927062988  9.97292423248291 7.475716114044189 24.87092018127441  9.58549976348877 6.921122074127197 24.48695945739746  10.34156087118312 7.992109768550137 24.29892539168162  18.87026977539062 3.923463106155396 25.78803062438965  19.41661071777344 4.312838077545166 25.24838066101074  18.71119394318229 4.829421733635419 25.03112367968264  18.49095349146005 4.692810949219037 26.11445425442576  14.05195999145508 16.16622924804688 20.84823989868164  14.62289224491885 16.0608937167411 21.496
[...]
<PointData  Scalars="c_HbCO2"> 
<DataArray  type="Float64"  Name="c_HbCO2"  format="ascii">4.8685442526698244e-27  6.1262098211110183e-27  3.6965263232009157e-27  3.1560169855452896e-27  5.7973846476942576e-27  7.8111935119404982e-28  -8.4248885614798552e-29  -1.5171703354906902e-27  3.8342910440285658e-27  3.4146862088667202e-27  5.2886088772769491e-27  5.4850667612013445e-27  3.2775664314295612e-27  3.4738136517273701e-27  6.3052986160328000e-27  3.6121870102849255e-27  1.9653009344418783e-27  6.8638380642516041e-27  6.2185957869822512e-27  1.2596863483146611e-27  6.6633265513503042e-27  6.5345590985050728e-27  2.5364407789499097e-27  8.2826771616632882e-27  4.9380884003780635e-27  3.1168740764716432e-27  4.6835602828033694e-27  4.8692704433754091e-27  7.4323575189847947e-27  6.7802796877460171e-27  6.1351101166459139e-27  5.2688361131106066e-27  -2.1969815565311330e-27  6.6881598032568205e-27  7.4975609526795906e-27  1.0007951459653458e-27  6.0218082636530077e-27  6.7785163149714026e-27  2.7502501699903669e-27  -4.8111453035130820e-28  9.1726105145097421e-28  5.1485574164219719e-27  1.9856417769181988e-27  2.9350245358250723e-27  6.8141584095080227e-27  2.2392851797499026e-27  5.5985927129290454e-27  -5.2498601740732915e-27  6.8649513114945687e-27  -2.2869315188461177e-27  7.6277895278149540e-27  4.6618411769616238e-27  4.9032125444388739e-27  3.6869550470318758e-27  4.8767496884744256e-27  4.8593612190478690e-27  2.1251280831664476e-27  6.6883527987381974e-27  2.1780284390779932e-27  2.9886291323749751e-27  4.2563282297566533e-27  2.8048958325834461e-27  4.5956357981388561e-27  4.0470146603137720e-27  4.5321120784193628e-27  4.2592361285079872e-27  3.5084606115020760e-27  6.8226465279250001e-27  4.2734549449343167e-27  1.1745095115833992e-27  5.7100122015363540e-27  7.4941304268936343e-27  8.4868174698481217e-27  2.3758149124619304e-27  2.3487356095148875e-27  3.1179545922520682e-27  1.9653032596827028e-27  4.2982272698039936e-27  4.1839098949794089e-27  4.8106646153688457e-27  3.9797920507554106e-27  2.1032518083664959e-27  4.6142811292383613e-27  5.2141131721905139e-27  3.3519313773804740e-27  1.0359343060260048e-27  3.7919382245498154e-27  4.3627328011229129e-27  7.1926563160482620e-27  4.4950523371930089e-27  1.4103230386057327e-27  4.8034414945034401e-27  3.4711964792564338e-27  5.3435721253498342e-27  3.0999408560866081e-27  4.8872552189980085e-27  -3.7311440947324623e-27  3.8514298569074502e-27  3.3536429002576487e-27  3.3762955399252475e-27  3.9038657682031631e-27  3.2734083014479419e-27  3.3451590583857384e-27  4.3616473499291685e-27  -6.1619884600810500e-27  4.0894817404522915e-27  4.3908800885241350e-27  4.8727859512602967e-27  3.3422225943500977e-27  4.7009470804346434e-27  3.5836668119540887e-27  3.8751984460711980e-27  6.0814588216992477e-27  5.4281966884148823e-27  -7.3324711256867446e-27  6.5316896224147090e-27  3.7127731835806896e-27  5.4791886887317549e-27  4.4728377148459887e-27  4.6117528596244378e-27  4.8920013150295495e-27  4.1606998877638799e-27  3.6354185465395483e-27  6.9922877657705380e-27  5.1894519262524381e-27  1.3203764183474930e-26  4.2830402522959425e-27  3.7160514100010501e-28  3.3627465417526531e-27  3.9461505636156222e-27  4.9681108296492641e-27  3.5540331568127138e-27  3.7424962297460460e-27  9.6288961121729438e-28  3.8541834884991779e-27  4.7976356548725742e-27  4.5407510989253677e-27  6.5725296469880156e-27  3.8481811666284234e-27  4.7263177447235185e-27  3.4261039987680404e-27  4.3081694997754039e-27  4.6786243021939585e-27  4.5775996949892725e-27  3.2904800548204868e-27  4.5385912877780456e-27  4.0652040173389415e-27  3.8972495646839504e-27  3.8246609067003445e-27  4.7597170234230032e-27  3.8600256507701617e-27  4.1089840656626430e-27  7.0937003126183141e-27  3.9539527091373800e-27  8.3912873829047031e-27  2.0562303058700826e-27  5.1008240157655392e-27  4.8393144593796692e-27  3.2327915000507293e-27  5.1230437638406380e-27  3.8426466673459350e-27  3.6976245967128203e-27  3.2178788414483507e-27  3.5214399766569545e-27  3.4887347152694400e-27  4.5988905393661761e-27  4.9704832700169640e-27  3.9995906251013837e-27  8.0109174861636054e-27  7.5192911457248301e-27  2.3555472804038478e-27  4.7963046506416926e-27  1.5766159395904447e-27  2.7381748756710205e-27  5.5132082498664594e-27  4.1944909151383375e-27  5.3112342827891795e-27  3.4638167340064552e-27  4.1289030932701203e-27  3.5954117250600343e-27  6.9162730760666486e-27  4.5474584168418032e-27  2.5621083572315744e-27  3.7642494668988621e-27  5.8908187135715458e-27  4.1582252607625751e-27  4.5082147601663468e-27  3.8450659688437064e-27  6.1832883224028914e-27  3.8330444893656219e-27  4.1012308953240173e-27  3.9420643516957025e-27  5.0866520879190947e-27  3.9866659160654356e-27  3.6777002798848767e-27  3.8046830637889142e-27  2.8004650206586063e-27  6.5687754242289801e-27  4.9968441508764968e-27  5.3489784390338196e-27  6.1005049565436120e-27  2.4522635540251505e-27  3.8167226780245394e-27  4.1947285671741397e-27  4.2515949111501796e-27  3.1813217464732804e-27  4.3761595814809146e-27  4.5529163953469098e-27  4.0910154974258928e-27  3.7373564186390364e-27  3.6922940119827829e-27  4.3413096775929699e-27  3.1288315090105294e-27  -1.3198488948213797e-27  8.7266992448417701e-27  4.1427938196709293e-27  4.0889574323804345e-27  4.0705434641160986e-27  4.2326657380391535e-27  4.1317996312081389e-27  6.2631615183053854e-27  4.4793862787637286e-27  4.0356374738933542e-27  4.3082400232851984e-27  3.3623805376448071e-27  5.3300773186997789e-27  4.1596992425783658e-27  4.2926346447689482e-27  4.1332564285455530e-27  4.0257116470940076e-27  3.9743683367474140e-27  5.4030848351115535e-27  4.1614094418779573e-27  3.4482387619016223e-27  3.9201094195989464e-27  3.5923802894882232e-27  2.0603537656931090e-27  4.4319694212069316e-27  4.8756091202212121e-27  4.7487585563448075e-27  5.5418554188589824e-27  3.3237131418022947e-27  4.6452299653530083e-27  4.9131006572073803e-27  4.5980833237242980e-27  4.2036381719559087e-27  3.8101939947134432e-27  4.0058765090511375e-27  3.3013966329675457e-27  3.0023297877203918e-27  3.7023571297247684e-27  3.8802527231169951e-27  4.4304412538247601e-27  3.8227095221304404e-27  4.7405254015353059e-27  3.9447558951565775e-27  3.7060084465011174e-27  4.2258262461498452e-27  4.4595213538237507e-27  3.1465969229969338e-27  3.7177975532847768e-27  3.9210541425491917e-27  4.2744517409351072e-27  4.0908115025683594e-27  3.9767546269249897e-27  2.3597184861566371e-27  9.2227149240049888e-29  6.2484445822252351e-27  5.9199059082193596e-27  3.5758526110423597e-27  4.0059924897605079e-27  4.1709941390850832e-27  3.4383209865461183e-27  3.1626093891745706e-27  5.1633504237100832e-27  3.1202914720745610e-27  3.7425648749168259e-27  4.0942675504365595e-27  4.8678618725818997e-27  4.3462597952614529e-27  4.8331079012345970e-27  7.8341826116481571e-27  5.6961524654608792e-27  3.4950582756871227e-27  2.2968955138134048e-27  4.7297018752872737e-27  3.8601652898147740e-27  3.7336604206857192e-27  3.9807806011975407e-27  5.2806001756654406e-27  4.2013848081635827e-27  3.2326521882773180e-27  4.0320220960412993e-27  4.0229326682014449e-27  4.4165421235205861e-27  6.3766000357383220e-27  4.2535334385388189e-27  3.2319613296750751e-27  4.2142615846705034e-27  4.3316743561709899e-27  3.4145868391691902e-27  4.9379481362571849e-27  3.9923595185984078e-27  3.9116233737397181e-27  4.2853715272541882e-27  3.7929894367844003e-27  3.4881878731394475e-27  4.0809545176934990e-27  4.2645676031513236e-27  4.6655976022553586e-27  3.6731462937116927e-27  4.5679196524315880e-27  4.8626231659061295e-27  4.5601353923138187e-27  3.5894282533223802e-27  3.8744463817855284e-27  4.0702506842255002e-27  2.6200985741563295e-27  5.2300662871698574e-27  4.2363285460105616e-27  4.8327484255999951e-27  4.2334278935833167e-27  4.4781659324372210e-27  3.6453528692815125e-27  5.0440972444931492e-27  -3.8236720619551402e-28  -2.8206621890649136e-27  3.8710986287718496e-27  3.8039187472652147e-27  4.4746080913407700e-27  4.4325319541001988e-27  3.5560884055313403e-27  4.4297173983553316e-27  2.7914142045536458e-27  4.2150958311304874e-27  5.0100738613137835e-27  3.5825982620253186e-27  4.7426912881470455e-27  4.2050161074659149e-27  2.8644489404008050e-27  3.9109439475103802e-27  3.9862078086772846e-27  4.5962568238870210e-27  3.9941042104049472e-27  -6.0776611692595293e-28  -1.9408609899756671e-28  4.2127302757644985e-27  7.8021859015988757e-27  4.5827066381730962e-27  4.0180602629257198e-27  4.0626110765895096e-27  3.4345722970022017e-27  3.8712256617872096e-27  4.0034665843338003e-27  3.7177069065665322e-27  4.5370398095050469e-27  3.3188365639505003e-27  4.4267069561062340e-27  3.6415951577747045e-27  4.5289520424111805e-27  3.0880333341996369e-27  4.1234680985242664e-27  2.5646467428105601e-27  2.3300201071003373e-27  3.7762382223576542e-27  3.3583513419398837e-27  5.2127549908529147e-27  5.7928061782653709e-27  3.0573346693544587e-27  5.1268446544653413e-27  3.9594745762364515e-27  4.6377195818709203e-27  3.8778433653876577e-27  3.9079715059487054e-27  4.2357035891799284e-27  -1.9676158323781318e-25  -4.1340660246542192e-27  -1.6819313505497890e-26  2.5696927962171871e-25  3.0988855177563651e-27  -3.1297619328024389e-27  2.9130689827113410e-27  6.6459025935892642e-27  2.3375013556780705e-27  4.7013541706733444e-27  3.9895558606692745e-27  4.1930962580972746e-27  3.8414420705738324e-27  4.3916542980677745e-27  4.7706101584658931e-27  3.9870013770297911e-27  7.1568476644818751e-27  4.2701077891105851e-27  3.9166878801254682e-27  3.0514636216158462e-27  4.2353452278198218e-27  3.7160247688720666e-27  -9.5339264764691187e-28  1.4473604256522374e-26  -5.4068194707928745e-27  3.0497097193905131e-27  4.1156362795278607e-27  4.3197042372146894e-27  4.5485790739445938e-27  4.3437773984771281e-27  3.9915250464216939e-27  3.6618017784984250e-27  3.8014989421698842e-27  2.9034370637578452e-27  9.3861356353219649e-27  8.5605080994624365e-27  -1.5325353170100978e-26  1.1770032156124368e-26  3.9149652685096051e-27  8.4481519613047901e-27  9.9802044759201142e-28  7.3872517138102783e-27  5.0855222432110879e-27  4.1768081070672774e-27  7.2622918502788316e-27  1.8563641960274383e-27  3.8127827490928781e-27  9.1457957225798692e-27  -1.6729389539418362e-26  9.3568565401991584e-27  3.8001019819524513e-27  5.8209678996608136e-27  2.4747102271414099e-26  3.4369621163639479e-27  -3.6931754975018304e-26  1.2018212287401429e-26  3.8975932045151887e-27  3.8750158070212421e-27  4.2332977401121002e-27  3.7262468395915184e-27  4.2433551858762388e-27  4.1626421480818638e-27  4.3319135319234622e-27  3.7208692671808502e-27  3.3908747048475403e-27  4.6252104145852124e-27  3.8490770772596604e-27  4.0816277134091025e-27  -2.6377285735013422e-26  -6.7817892609026186e-26  2.9186297179030691e-27  6.5316162690209236e-27  6.0526642934287177e-27  9.2357540927019875e-28  6.5921308349568106e-26  2.2592089693333402e-26  -6.6312210822772047e-27  3.0756530092749140e-27  3.8508743265958127e-27  4.6380494602191573e-27  3.9677057655022523e-27  3.8241732613419250e-27  4.0984099829815185e-27  4.1957248232456044e-27  4.2060309150354020e-27  2.9685364350546296e-27  -9.1074326659446990e-28  3.9175274254597191e-27  4.9315227642325004e-27  3.3769531495520112e-27  6.0182386713220990e-27  5.4708822494959957e-27  3.8620441327688496e-27  3.6594514262230969e-27  4.1512919607399862e-27  4.2956711310988094e-27  4.3587075859460492e-27  4.4522464264795246e-27  3.9189345353983615e-27  4.2542910330626371e-27  3.2719992866069616e-27  3.4498845960001070e-27  4.2569838612514352e-27  4.2338060060680979e-27  4.1329676835306023e-27  4.0054876407215157e-27  6.8093952349038381e-27  3.3580354608941235e-27  7.5549973558217254e-27  2.6903527346086045e-27  3.2215124537546065e-27  4.1283109037599578e-27  5.7225797115802657e-27  5.4056931926552715e-27  3.4526362152839423e-27  5.1792817084512098e-27  6.1089593269640569e-27  3.0508379488744532e-27  3.8445232012530292e-27  4.4714950108741295e-27  3.9584797625459297e-27  4.2822098009514669e-27  3.5678951941955679e-27  4.8757452506606129e-26  6.4450927595948813e-26  -6.2195500770361600e-25  5.2511929146380065e-26  4.2643820567955170e-27  4.2976715358582483e-27  3.7969178795348439e-27  4.3021356692956281e-27  4.2356397014640529e-27  5.1407995818721299e-27  2.8700485227143763e-27  4.9907372776754030e-27  1.5186646400612271e-26  2.7470944783718315e-27  5.5916857264772869e-27  3.3174562959292787e-27  3.9760578791905522e-27  4.3421813876108713e-27  1.0813883807487082e-26  7.0190160563939451e-28  4.1849945297475798e-27  1.8961903445766579e-27  8.7501639500738941e-27  3.4369841385721816e-27  2.1319424551094830e-27  3.7909235246686623e-27  4.0457101906773857e-27  -1.5889012479189224e-24  9.3731784101379756e-27  1.3287968338830306e-25  4.2765579998695084e-27  4.5710612199321097e-27  3.9429891404325072e-27  3.6123441932316719e-27  5.1270608436591007e-27  4.0781928070413634e-27  3.7067124734588696e-27  7.4998480131069489e-27  6.6227101493538636e-27  3.4298968672825116e-27  7.0784437407519676e-26  -8.9600804317683154e-26  2.9036308785840961e-27  4.3873096425691814e-27  3.7700708545988595e-27  3.9799921930464184e-27  3.0989556125286194e-27  5.8959178974153985e-27  4.1274361436747134e-27  2.5442716020518686e-27  4.1108693599690141e-27  3.8502615669891417e-27  5.0463260405749108e-27  3.8602450842457399e-27  3.7698220564408150e-27  2.2999109047814637e-27  4.6454427894351327e-27  4.4623249099377176e-27  4.0862741439751531e-27  4.1644152711077974e-27  3.6165628024680050e-27  3.8122192451630376e-27  3.9742046853569125e-27  3.8215218504411897e-27  4.0487660118418534e-27  3.5627075921419272e-27  4.7759397278347068e-27  3.3236540760787902e-27  4.4375598049068373e-27  4.5220577243236395e-27  4.5274059526137751e-27  3.9569480645174390e-27  4.2505420471439450e-27  4.0403284583427792e-27  3.7987809712573760e-27  3.2233913000594908e-27  2.6157874926531715e-27  6.2226232051456857e-27  -5.1078775322984807e-27  3.9280184973413152e-27  4.2217186177796476e-27  3.3308963515665092e-27  4.9771683698510089e-27  3.3820580239045930e-27  3.9475896522241017e-27  4.2447286481469702e-27  4.4638336616500022e-27  4.1777403662143955e-27  4.4536678253251241e-27  4.8796804380446764e-27  4.9168522937910737e-27  5.9086066922928205e-27  3.7744232110244647e-27  4.0347629921839195e-27  5.4921315765811260e-27  4.2764147029381028e-27  3.9150822337940820e-27  3.3322520653923776e-27  3.8084841022865501e-27  3.5243065549326245e-27  3.6686744290978370e-27  5.2562079307707722e-27  4.5572965064985227e-27  2.7340298807590455e-27  5.8485907093591348e-27  4.5562203480346157e-27  4.3879903112412812e-27  2.5961986429174979e-27  3.9558561998764362e-27  4.3801696603836787e-27  4.2167063354270695e-27  3.5905724558622717e-27  6.9395178523482668e-27  3.9063465075496282e-27  3.9212437239970485e-27  3.9806069908775018e-27  4.2428255888046987e-27  6.0612471123443491e-27  3.7168266289893657e-27  3.9449071474438805e-27  4.2158947234022326e-27  3.7347310699039313e-27  4.1028474087523205e-27  3.8039010948966231e-27  4.0859196783952391e-27  3.7626889038195093e-27  6.6257720551346460e-27  4.2979692896577756e-27  3.9822561320948623e-27  7.5044111359206142e-27  3.3987599329295946e-27  8.0081243253539165e-27  9.3854364859498553e-28  7.8899106936249820e-27  4.1265341325839788e-27  3.0564877486088784e-27  4.5943201482231955e-27  4.5400001576095032e-27  4.2490214478964775e-27  3.5695530026444674e-27  3.7928805953007807e-27  4.6839162156802426e-27  3.8322063930179343e-27  4.8752698328757276e-27  4.5324307617579707e-27  5.5023807226076839e-27  3.9409336332187814e-27  4.3132109482178590e-27  2.8105002085096261e-27  4.3572802967588627e-27  4.2909839620224602e-27  4.0847472609505552e-27  -1.6814435789036120e-27  4.7220634701237228e-27  7.7137155332675022e-27  1.9096398512238045e-27  3.4444202993272515e-27  4.2173539147344361e-27  3.8322975147809953e-27  5.2202971224703924e-27  4.5620422071686099e-27  4.2350658455908286e-27  8.9279296628383764e-27  4.8351867007778603e-27  1.5722978221774093e-27  5.2070674066571720e-27  5.2435067674498877e-27  5.0369660900095483e-27  3.7442438323062069e-27  4.0894365317953186e-27  4.9659314548749516e-27  4.1200109307565715e-27  4.7301458369358584e-27  5.4184375338439321e-28  5.5979201885275883e-27  5.2636791627175691e-27  5.0966648245034105e-27  4.0899272218574162e-27  3.9522379363637200e-27  4.0120481090634906e-27  4.0456692795530935e-27  4.0765707831652587e-27  4.2713921463487373e-27  3.9215911753622974e-27  3.9558818228184408e-27  5.3445584970702903e-27  4.5517902793346543e-27  2.8362176701560750e-27  4.9340197653856761e-27  4.7372466809275708e-27  7.3277964806906445e-27  2.7924268255212680e-27  4.6813986591784064e-27  5.3236046261347082e-27  3.7608646265887072e-27  2.9837918548593339e-27  3.2984123075714841e-27  2.5859508095562073e-27  3.6235128856617675e-27  4.1724698200032032e-27  5.4557212720750056e-27  4.5697789737395039e-27  4.0170196237244938e-27  4.0973067621564951e-27  3.7456206320074226e-27  3.2279810722457840e-28  4.2317065315515761e-27  4.2016891135102657e-27  8.7513723476698251e-27  4.1271410394128636e-27  3.2459256106230739e-27  4.2557605860075372e-27  5.6337591995099100e-27  4.0279188153597674e-27  4.4387914470891608e-27  4.2439105394739394e-27  3.8787234468305525e-27  4.2265744477295885e-27  3.8422607958501620e-27  3.2622812817462125e-27  3.9267033217058221e-27  3.9310083939251123e-27  5.2442694850830954e-27  3.5808222876906292e-27  3.4489238613915238e-27  4.0419169029996825e-27  4.2767934940708072e-27  4.5115798244630503e-27  4.3881306022076454e-27  4.2533724158111494e-27  2.7928666145689118e-27  6.8731277776008805e-27  6.1999379651211941e-27  3.9341883645077757e-27  3.4610539457708135e-27  3.3088375545097853e-27  4.9426694066317118e-27  3.7611423048028658e-27  5.9832230049925920e-27  4.8964671085049705e-27  2.4236344822735129e-27  4.7158431889707387e-27  4.6204133376223245e-27  2.8025972073962612e-27  3.9284032164373930e-27  3.4746890146269916e-27  5.0478914076642206e-27  4.2597110529239248e-27  4.1915769446773873e-27  4.2438834287222721e-27  3.2322855197493690e-27  4.9201328149847101e-27  5.1900735915788255e-27  4.1548576735328401e-27  3.8428751044892749e-27  3.3779820387124553e-27  3.4510328068512683e-27  4.3451710797343517e-27  4.6645310106098776e-27  3.9311473659749265e-27  3.7036442681889996e-27  4.3751019354115776e-27  3.6931400921981936e-27  4.0470602924408320e-27  4.8437494576448244e-27  3.3586797697034805e-27  4.1478579702520484e-27  3.1244420637252591e-27  4.0917113951870908e-27  3.6828446987795797e-27  4.1035671687508089e-27  3.9542670331015086e-27  4.3977332829810186e-27  3.8436202092253907e-27  3.7552029044480777e-27  3.8896802587217736e-27  -8.7497614278720846e-28  5.4248396383973112e-27  3.8807905042424656e-27  3.8313629325528758e-27  4.3674111362160929e-27  4.5958859159962859e-27  4.9844686824154737e-27  3.1105910374163830e-27  4.1554777459124691e-27  4.1764473794920829e-27  5.0303456226078107e-27  3.4638005934134146e-27  3.2426024266731204e-27  4.2883652782732757e-27  6.3798958539064056e-27  3.1019488262336017e-27  4.2957537376165385e-27  4.4783070945456384e-27  5.1626592113489354e-27  4.9630325480773938e-27  5.5830771200050572e-27  4.1885952410193575e-27  4.0225548769597877e-27  4.3779288850285909e-27  4.2738535730631644e-27  1.2886344322436636e-27  3.1878684138714548e-27  5.4590948928763537e-27  3.7064340928728048e-27  4.5552986011667130e-27  4.2269667029515831e-27  4.1026312973094402e-27  7.2302245538046004e-27  5.8339613305810103e-27  5.3674751033258578e-27  3.6860983119277278e-27  4.3115112927069154e-27  6.3079322104587211e-27  8.3167574999853248e-27  2.8989280456289980e-27  4.4500581401630921e-27  4.1823678319124404e-27  3.7389798408587323e-27  -2.3794156890442869e-27  5.5329133031886105e-27  3.0410171044117823e-27  4.9682375058199238e-27  2.6612751910152398e-27  5.0541666406013788e-27  4.1527789071923425e-27  4.2327042666839075e-27  4.4829771221719073e-27  3.3786104325667584e-27  3.1336386197940399e-27  3.9