<?xml version="1.0"?>
<VTKFile type="UnstructuredGrid"  version="0.1"  >
<UnstructuredGrid>
<Piece  NumberOfPoints="5330" NumberOfCells="21391">
<Points>
<DataArray  type="Float64"  NumberOfComponents="3"  format="ascii">23.8533992767334 36.92370986938477 22.98771095275879  24.01176071166992 37.24792861938477 22.40053939819336  23.97743034362793 36.42126083374023 22.24371910095215  24.61407434223722 36.30523826537929 22.69432316359283  26.03122258825007 34.55667933806011 23.11451616438801  25.04451724975435 34.54129543375207 24.17684934972144  25.56289727895331 33.76099294446186 23.53690716493347  25.51669186600563 35.23603804945733 23.61879393837657  26.48147964477539 31.06254005432129 24.15999031066895  26.09056091308594 30.9357795715332 23.41942024230957  26.84757995605469 31.03432083129883 23.48229026794434  26.26137366729533 31.79564193851702 23.34168753775113  25.90640663013887 32.86500214264544 23.84731991706083  25.46132450743143 32.41130624043251 22.54594392263798  24.72359083095978 32.96663135784319 23.12159389489219  25.52459907531738 31.12636947631836 23.93000030517578  24.03634071350098 32.95090866088867 23.83366966247559  24.30232048034668 32.24694061279297 23.96475028991699  24.19352912902832 32.47346115112305 23.06410980224609  26.23453873958898 32.00345737788836 24.37895307864792  25.22171082933398 32.10802001841286 23.66078630501335  26.59374833935045 33.13073706650009 22.91819579686785  23.93135070800781 35.89131164550781 23.07531929016113  24.81379671510081 36.04235436287938 23.99493629232714  24.2815638820345 36.82200368842646 23.56816402904094  24.79475021362305 31.63839912414551 24.13678932189941  24.78842926025391 31.6625804901123 23.3869800567627  25.23727708995441 32.13631273538662 24.60953199663298  24.69914911041053 33.16276311913659 24.29968474897687  25.61063886956829 33.87721325045243 22.3490144783796  27.28319931030273 32.75743865966797 23.95899963378906  27.21936988830566 31.63388061523438 24.15830039978027  23.84708976745605 35.11214828491211 23.58916091918945  23.99740028381348 34.57553863525391 23.24184036254883  24.01149940490723 35.10567092895508 22.862060546875  24.67304093597082 35.38316980594692 23.30720637464153  24.7385747404655 34.25312149107869 22.87174526641291  26.45182037353516 33.88687896728516 24.52520942687988  26.81912994384766 33.16836166381836 24.62692070007324  25.84597560813447 33.12680856783752 24.78663525278034  27.00455093383789 33.82923126220703 23.70158958435059  23.99077987670898 33.64598083496094 23.23887062072754  25.45388984680176 31.18131065368652 22.88166999816895  26.33370018005371 34.7199592590332 24.08304023742676  24.99853459903706 37.34026454774614 22.86856027829746  23.75984954833984 35.41810989379883 22.15986061096191  23.7086296081543 34.24514007568359 24.05828094482422  25.32798175621754 36.35412777710189 23.33089014257267  33.11483001708984 17.28025054931641 29.95257949829102  33.88375854492188 17.18732070922852 29.55645942687988  34.57072406613248 17.48280827298325 30.42666791858331  34.09026107313191 16.55571440184556 30.51268137688902  19.91542053222656 10.74433040618896 38.49259948730469  19.94610977172852 9.857664108276367 38.18770980834961  21.14235550672289 10.27471129123756 38.79845195042704  20.81327712105984 10.70207556178925 37.35253039738533  32.82822036743164 19.20314979553223 38.07062149047852  32.91257858276367 18.3771800994873 37.8048095703125  33.27568501011447 19.18917403450212 37.28318304680815  32.58183381278117 18.93603798961593 37.25466432556418  29.50457000732422 10.9754695892334 35.53081893920898  29.8074893951416 10.90530014038086 34.70655059814453  29.50317931132104 12.34687554127081 34.60804769156135  30.2639361831956 12.26682612572651 35.45012590987027  20.09869956970215 9.995880126953125 39.02400970458984  20.00617980957031 9.197901725769043 38.76840972900391  20.34049034118652 9.423279762268066 39.36502075195312  20.74946028058507 9.466475520521664 38.03348222514362  33.73038864135742 19.90756988525391 37.95827865600586  34.45394134521484 20.59691047668457 37.8654899597168  34.49996948242188 20.07081031799316 37.45333099365234  33.80634696699604 20.82579157783631 36.90764718905221  30.20044039209425 15.32791496938898 33.91520740967427  29.92716808294223 14.10402943890873 34.82199210514282  29.45680956135388 15.44918809802281 35.19804777674647  29.64365030550715 14.42570135600475 33.73521239957319  36.97259902954102 7.092794418334961 38.98308181762695  37.30613708496094 7.357527732849121 38.35615539550781  37.76517868041992 6.823711395263672 38.85606002807617  37.46072418317019 7.831738043801661 39.1493187805933  26.78860857419974 12.51687203797752 37.14997344568989  27.46312808869176 11.79467216657777 38.24595007010387  27.73514197886697 11.35795874035866 36.35883065614445  26.64272946621096 10.52093492425368 37.53785348082197  33.99629974365234 12.10910034179688 36.85799026489258  34.69263649293735 12.49266608242597 36.34247847658728  34.30566772398601 12.90375215535799 37.35403427653561  33.70521344629493 12.79540968589027 36.62529834913276  29.53205871582031 11.21191692352295 33.23213195800781  29.4676565836986 12.94101784890996 33.01410713590946  28.75518277162994 11.23831482914741 34.20020624223484  27.83683013916016 10.72702026367188 39.89208984375  28.19679069519043 9.872431755065918 39.36574935913086  28.38579633476999 10.94587125992954 38.91910758719599  27.68944962656509 10.36730145790054 38.54984106702715  28.09148402159686 12.87829522823831 36.32186836495337  28.68231197184889 13.52655626923031 35.63116922759506  28.22480089148929 12.19915098382488 35.32481409771921  27.14704424344125 13.22460578869139 34.97360521570682  31.47934913635254 20.95421981811523 29.91850090026855  32.13589096069336 20.92571067810059 29.46285057067871  31.62850570678711 20.80660057067871 29.44246482849121  32.25195457670224 20.29975624314781 30.01418649675349  26.85506057739258 10.34403991699219 33.5671501159668  27.08847483041728 10.37967935351194 34.81120791695535  27.20565662715987 9.473621081450689 34.25953952790182  27.85459649802603 10.41643211121657 33.79645134526884  30.36918067932129 17.33448028564453 31.27371978759766  31.30680084228516 17.26750946044922 30.90336036682129  30.67079079179247 16.8544020965038 31.71031796840492  30.9187073642318 17.78661862341616 31.82153144776834  22.85635948181152 11.21975040435791 36.02085113525391  23.06517028808594 10.38533973693848 35.98772048950195  23.76922021372633 10.22767549339997 37.11184982910089  23.99542927781117 11.32517854250756 36.56465457697051  35.53302001953125 22.1006908416748 36.4693489074707  35.26602172851562 21.68569946289062 35.79008102416992  35.87643051147461 22.43671989440918 35.81011962890625  34.96959825415456 22.67486294816436 35.9882445050678  22.89797019958496 10.33263969421387 39.89208984375  23.68036079406738 10.23036003112793 39.89208984375  23.39263885729481 9.900994551020734 38.77116359588359  23.7783353915775 10.92080262828866 39.03085530551676  36.38435516037003 12.48776824308993 37.61895660205816  35.77951130855158 12.01179308897274 38.94595774241875  35.03112673284373 12.32278482091102 38.10238401895502  35.42136201247638 11.71271456181463 37.72338449067892  31.87166976928711 26.32401084899902 35.95365905761719  32.42333984375 26.30351066589355 36.89635848999023  32.74515914916992 26.33816909790039 36.19672012329102  32.37856290342822 25.15445194820811 35.92569929949089  31.77611061805474 12.97655465076485 36.1545681031785  31.37804174510108 12.46626731511682 34.57660613628368  30.92413717620162 13.45767528351266 35.52576032129411  30.97712656215511 12.31982807574881 35.52417318462416  28.70578271864762 11.76350873159062 38.32443158421099  29.23743845862603 11.0748879156729 39.05488509232327  28.3571532936131 11.66343962317506 39.26552337836791  24.6630802154541 16.33919906616211 39.24499130249023  24.89094924926758 15.35840034484863 39.89208984375  25.5224011623293 15.29027829106597 39.127703618749  24.44759050041533 14.87246633747192 39.04316600073877  31.90279960632324 14.6453104019165 39.13051986694336  32.43264007568359 14.37290000915527 39.89208984375  32.54349899291992 14.83487987518311 39.21529006958008  32.88762892426659 13.96898090632012 39.17686931428194  32.50625513815 13.44544157556516 33.63648593359747  32.88970145412821 12.2691031394228 32.70728260907086  32.70547452647889 13.51935737404341 32.10620311106776  31.55522352432124 13.34332588569312 32.49310165624335  34.28307470169612 21.92950712780127 36.17837222740703  34.38398409781292 23.26360592498445 37.29721429444657  34.54773204463482 21.9731996427638 37.12867188070845  32.40885925292969 14.84689998626709 30.919189453125  32.42488098144531 13.99077987670898 30.99702072143555  32.26802203958817 14.53015422812383 32.11181634720764  33.15865309870824 14.06171203402712 31.42517942894182  30.98878148305599 24.85502664836832 35.74128317578482  31.37425094045921 25.22827514139823 34.76453018121875  33.72264099121094 20.21820068359375 33.88114166259766  33.96395111083984 20.43791961669922 34.65565872192383  34.48305130004883 21.02586936950684 34.1449089050293  33.40219477909476 21.40849962990584 34.18597978333459  30.26991081237793 15.58191013336182 36.13534164428711  31.24157905578613 15.77075958251953 36.62005996704102  30.71026992797852 14.93220996856689 36.33189010620117  31.57149085990048 15.60275774318739 35.14140376060718  24.47986030578613 13.37100982666016 39.89208984375  24.91430084297609 13.15269303486745 38.88555333842892  23.54950441572135 13.98543015741688 38.73134427860047  32.02101898193359 18.22079086303711 37.67462921142578  32.16039445183016 18.47315970950255 36.5187776981227  31.79847383326024 19.38800915532483 37.01234238584365  29.33481025695801 11.70998001098633 37.48682022094727  29.25774955749512 10.99333953857422 37.96107864379883  28.3430789886575 10.98213385565772 37.70276347978689  34.11162948608398 23.60380935668945 33.38232040405273  34.15966033935547 22.69459915161133 33.12784957885742  34.9551887512207 23.0261402130127 33.03392028808594  3
[...]
<PointData  Scalars="c_HbCO2"> 
<DataArray  type="Float64"  Name="c_HbCO2"  format="ascii">5.1034378362701003e-27  4.5247046942884689e-27  6.7253009722009104e-27  2.2578530719439853e-27  4.1764186408001267e-27  3.4237258376702974e-27  5.2264825660391858e-27  5.2493866935939873e-27  6.2234647457207609e-27  5.8304106462318139e-27  -7.2979179137832502e-28  4.1507749917599696e-27  4.0346915125353111e-27  4.2476850152904333e-27  3.4563282341320666e-27  7.9192409330142174e-28  5.9873358171733456e-27  3.0955021293125284e-27  3.1469452039608108e-27  8.2392261033673339e-27  5.0893765298174400e-27  3.2542924518645050e-27  5.4233523425513836e-27  4.4079615058860320e-27  3.8607760135952073e-27  5.5014525810684258e-27  4.9269069716054301e-27  2.9870991728687781e-27  4.1783125790810885e-27  3.7773375124934188e-27  3.9263839163095975e-27  -4.8265360103299122e-28  2.5918805098170072e-27  4.1266723504258685e-27  3.2168689041602366e-27  5.2307614632998897e-27  2.9074282773815191e-27  4.9304497807762148e-27  4.3289189342272970e-27  3.0630339138502718e-27  2.6736465344055227e-27  4.6571469100693076e-27  2.9242690623876643e-27  3.9193123208730486e-27  3.6037969834509505e-27  4.8809896048031269e-27  4.0511703916220497e-27  4.8150128428752745e-27  5.1924468590999148e-27  3.8346486418374338e-27  4.0531030070472967e-27  4.7276763340785531e-27  4.8047692813855753e-27  3.8424851687733869e-27  4.0896724228791482e-27  4.4602364350667367e-27  2.7462910215801915e-27  4.2914785077318112e-27  4.1393235129643801e-27  4.4856914190983015e-27  3.2533550253619975e-27  3.9954962629856510e-27  4.8778315610110025e-27  2.9100837619125564e-27  2.7772714974286920e-27  4.2057734098327366e-27  4.0583231665245048e-27  4.1294728664674402e-27  4.3906232296134574e-27  5.4912507159959801e-27  4.3180224171981533e-27  3.4326875852521796e-27  4.0035322935534955e-27  4.4653050661946274e-27  4.0081806999958287e-27  3.6779772687101049e-27  4.0462989258396220e-27  4.0914703834885177e-27  4.0604854289119084e-27  4.0499566724282997e-27  4.2479225645726396e-27  4.6771522470595540e-27  4.6304177824358776e-27  3.8474132727918988e-27  2.1179783265883454e-27  4.4308030702683456e-27  4.6014828037719177e-27  2.8057998474269587e-27  4.4649365709626393e-27  3.7598835443515112e-27  4.2546394861536823e-27  5.6102933504951110e-27  2.9273955695062423e-27  3.0089153513120808e-27  4.3484394419491205e-27  3.4054611883093888e-27  3.4460422721383104e-27  3.7423125390569698e-27  4.0090828005987110e-27  1.4766362736022193e-27  1.9283806345705824e-27  7.4818413546371936e-27  4.5709681888300369e-27  4.1396164436956964e-27  4.9888725010738862e-27  5.3930873345006906e-27  4.1476160819739191e-27  6.5515161035379107e-27  3.9001444388525979e-27  4.2648281339561299e-27  4.6522254580758516e-27  4.0158668406450183e-27  4.2720581037307915e-27  3.8404863097976210e-27  4.6673658456733892e-27  5.6709562715538451e-27  4.9315519164890811e-27  6.8243174037955204e-27  2.1806166133906329e-27  3.9421344567093057e-27  3.8798170295908476e-27  4.2345972900320714e-27  4.2439556068564497e-27  3.9805404502543437e-27  4.1189098069647462e-27  3.8687246386271565e-27  4.7989720542226061e-27  9.8849533513024956e-28  3.7005743351075534e-27  6.9760895529735080e-27  4.6210734017565907e-27  3.2424766612308839e-27  3.8694138774573970e-27  2.8822526513170548e-27  2.7675967017815564e-27  2.0261627582068024e-27  3.8173243253322121e-27  5.4849118906932632e-27  4.8164124318549874e-27  3.6306543783120438e-27  4.0257019127219505e-27  4.1660878158159350e-27  4.9168969623474827e-27  3.7782165286740775e-27  4.0957183416173667e-27  4.3614784384746820e-27  4.0696341603060814e-27  4.1340540029366339e-27  3.2741599935414219e-27  4.4809268786819545e-27  4.2349867732473051e-27  4.5895159428588415e-27  5.6848078462101396e-27  3.1077940901043178e-27  3.9435707806050205e-27  4.2961898881599118e-27  3.4829609677130297e-27  2.7082692020569255e-27  6.1139936178272838e-27  6.0831503483689264e-27  5.8002588368460698e-27  3.4824022282807741e-27  2.9040483493069373e-27  6.6910722721721738e-27  3.4409090355036003e-27  5.3381987173109900e-27  3.3272731575753984e-27  4.1346024669316185e-27  3.8188466994986509e-27  4.2761938795205784e-27  3.6158278383472311e-27  3.4085888523911894e-27  3.7396731043231921e-27  3.1902625477036777e-27  3.4438254524634151e-27  4.7908751752870845e-27  5.7818788726805459e-27  5.5989247229957997e-28  1.1550231761403982e-27  7.1982268363334691e-27  3.8908933790227532e-27  4.2738644187005976e-27  4.4321192275500156e-27  3.9447120503498617e-27  4.0165163812504834e-27  4.2384674753687554e-27  4.1612613384771754e-27  3.9867490565763898e-27  4.3812701698322293e-27  3.3827319862658048e-27  4.0242057149520411e-27  4.6183139778205831e-27  3.6098186254926459e-27  3.8446630905347243e-27  4.8025151459122505e-27  4.3158812313879825e-27  4.1153111185014764e-27  4.5374327303249586e-27  3.9436923224344744e-27  3.5484341423455652e-27  5.9273995696507591e-27  4.3440769758012936e-27  3.5017736740918832e-27  4.2373914307125000e-27  5.2646504094603097e-28  4.5488204038880995e-27  4.7495755396488790e-27  5.1821099741490364e-27  5.0319411810190225e-27  4.5338157025599046e-27  4.4355454274387437e-27  3.9172010679650266e-27  4.2234223999730323e-27  4.0781937636391431e-27  5.7943195970544191e-27  2.6166086829741313e-27  3.7119867099994927e-27  4.2348298839206647e-27  4.8073707352176296e-27  2.1132571862162039e-27  3.6792327292904757e-27  4.3249907244471749e-27  6.7138547492233176e-27  4.8813344588182106e-27  3.0116076200170647e-27  3.9816256069453907e-27  4.0172850812499906e-27  5.3024695580777553e-27  2.5921642089179467e-27  8.7562219793293572e-27  4.6550846701433174e-27  4.3893399755853631e-27  3.6375935262855078e-27  3.8296242495382575e-27  3.8806884100457810e-27  4.7061203725585956e-27  4.9290421152622783e-27  3.7661728621321440e-27  4.1213591434386710e-27  4.8894442452710865e-27  3.4179012992135359e-27  3.7903789238669900e-27  4.4579792509977571e-27  3.8123422619006870e-27  4.8469108506466743e-27  5.2226636600484435e-27  4.4810120385102155e-27  3.9802869873230653e-27  3.9934408026350171e-27  4.2928121054509277e-27  4.3296082222140947e-27  4.1103832597072700e-27  4.6582811286399410e-27  3.2465342223602120e-27  4.9252119456565712e-27  5.0047596368656103e-27  4.5646898819944662e-27  3.5253376323471157e-27  6.6756014581327916e-27  4.1840012458087043e-27  4.1890080086615200e-27  3.2310465653997009e-27  5.0932605130670241e-27  5.2704646396579405e-27  1.8841256092433189e-27  5.7192150119101743e-27  4.2506717186232108e-27  3.8535665456560842e-27  2.8945416069575869e-27  5.6822488259213840e-27  4.3617273109122892e-27  4.0949796793455514e-27  4.1372979425813119e-27  4.0805010042103455e-27  4.0559154029626642e-27  4.9608100373457276e-27  3.9025466764367027e-27  4.5567341804969240e-27  4.0413437208803157e-27  4.3536774106482623e-27  3.6700257677725673e-27  4.5653846939184701e-27  4.2892337147591092e-27  3.0439091107556044e-27  3.3129002491393134e-27  3.1877756854066529e-27  5.0041847989482609e-27  3.9988669866994717e-27  4.1421882205925217e-27  4.0671207448013368e-27  4.0333085168561999e-27  3.8420454201546106e-27  4.0615332852930215e-27  2.2945200104209882e-27  4.4430585407901027e-27  4.1784096856337580e-27  4.3593094312731295e-27  2.8987701548584316e-27  6.1526269722932480e-27  3.9157857502480592e-27  3.4534093799943119e-27  4.1576618126323386e-27  3.8288412601217883e-27  4.2707865047395192e-27  4.0231073284635172e-27  4.0921509035071011e-27  4.2037630694711910e-27  4.0595998376386193e-27  4.0313151665388804e-27  3.8579170064944706e-27  4.5037391568540794e-27  4.3498576187021436e-27  3.8499273054880603e-27  4.0818813810319536e-27  4.0633763418695253e-27  4.0886733980159462e-27  4.0423495248346635e-27  3.9052289654135194e-27  3.9614530168325964e-27  4.1593678952745510e-27  3.9352762852550231e-27  4.2932067845905714e-27  4.3107964584942286e-27  3.4694607549494420e-27  4.2910845946086309e-27  4.0355674596026752e-27  3.7248603072863638e-27  5.3644847353478330e-27  2.2362195732442362e-27  4.6382544154141238e-27  3.6357000988990996e-27  4.6816174119130299e-27  5.0168765890173070e-27  -1.3672002908579617e-27  2.5445561479703284e-27  4.8223602719480097e-27  3.6171936808473244e-27  3.7970876744970625e-27  3.6090531605393672e-27  5.0112329166300533e-27  4.0505238424885655e-27  3.5659071147145901e-27  4.4772259104077528e-27  3.8345964378572750e-27  4.0568713231573209e-27  4.0324021155091373e-27  4.4362508227842365e-27  4.3014940854633677e-27  4.1582824945641757e-27  4.1419531718978335e-27  3.6287436001521388e-27  3.9098581363272147e-27  4.0815349774872248e-27  4.0340697888131064e-27  3.1827092237107470e-27  4.3369943027113705e-27  4.9419452093162137e-27  3.8734082525919778e-27  4.0144893463119278e-27  4.3215099853938150e-27  4.1997235601733984e-27  4.0788050818493046e-27  3.9177280156645030e-27  5.6249795139328965e-27  4.0608844853058673e-27  8.2326515428229333e-27  4.5048868403765995e-27  4.8441705580690644e-27  3.7707400103140933e-27  3.7768899054398485e-27  3.6030912522512575e-27  4.0657264860989232e-27  3.2029436989697845e-27  5.9107282041369071e-27  2.4650994527175578e-27  3.5328832511565506e-27  4.4331790612102987e-27  4.2865739898547541e-27  3.7092226219243647e-27  6.8577426637406372e-28  4.0826466966251371e-27  2.5030047259826654e-27  7.4459480516604688e-27  3.1644463123398809e-27  3.5366768015264203e-27  5.4668781838898632e-27  5.3508828273851168e-27  3.1761554159192625e-27  4.0531177210661644e-27  4.1477657667120056e-27  3.9997978296610290e-27  3.9925701288294197e-27  4.2944213443262570e-27  3.6783244022032252e-27  5.4230455714665256e-27  3.7761676339227662e-27  3.8952500135326932e-27  3.5070652831069448e-27  5.6868713392548944e-27  5.5362047327957756e-27  4.0040617042157628e-27  4.0257520955863428e-27  4.0862154626164015e-27  4.1331099575822071e-27  2.5103258706579824e-27  4.2855095385502560e-27  4.2588519494981720e-27  5.4785154446270047e-27  3.5919220269690632e-27  1.9929618546680704e-27  5.6658990527244012e-27  4.3771333331355056e-27  -7.5376630196187856e-27  -4.5516536747403723e-27  8.1526897584120372e-27  1.2904325663523507e-26  4.3801127094655885e-27  3.5748977288454490e-27  -1.4024190990703451e-27  3.6807420322294233e-27  4.2271024738223040e-27  4.0958762871418378e-27  3.3100250470489660e-27  4.2693172037648401e-27  4.4814317195184505e-27  4.1124492717926496e-27  4.1118604449929503e-27  4.4245635959388496e-27  4.1032993842968403e-27  3.6365708954499212e-27  4.3615868669754027e-27  4.0366582300234636e-27  3.4266599834242999e-27  4.1876796487851041e-27  1.7556981483721628e-28  4.3797927041620294e-27  5.6335620071910064e-27  4.7906934499452880e-27  3.2916867302785929e-27  4.6970173951121365e-27  3.5802965727521187e-27  4.4384317873161800e-27  4.6451007107265181e-27  4.6962562562907859e-27  3.5454690599959688e-27  3.6855740651185024e-27  4.7467819683748324e-27  4.6044695870450789e-27  4.1604176205146883e-27  2.5270575661803029e-27  3.9325710441898738e-27  4.5446406298285464e-27  3.1317071880852965e-27  3.2785334023673997e-27  4.1272953798853520e-27  1.0405194306634839e-26  2.7450483604704273e-27  4.0462873256250246e-27  4.2919904811131520e-27  4.0086924165242833e-27  4.1239045633690297e-27  2.7750596056148836e-27  3.9505437605449284e-27  3.4135223796161620e-27  7.1426516685350550e-27  3.0893748042916173e-27  2.2428172406611061e-27  3.8446361255056666e-27  9.9457814567363404e-29  4.1031369029333093e-27  4.4819306042220794e-27  5.0968675425690418e-27  3.3865500321336501e-27  5.5611437442740613e-27  6.9751593333008880e-27  5.9568990797288687e-27  1.8933632280900306e-27  4.3212551383247401e-27  2.6654363301263566e-27  3.7028847036113138e-27  2.6203410430445241e-27  4.2886084672742992e-27  4.5734522004712731e-27  3.0590026896355343e-27  7.0124480672793729e-27  4.5901670745983393e-27  4.7989601116434266e-27  3.3463875384060475e-27  4.2245358677980592e-27  3.6887756245740786e-27  3.6014144292828878e-27  4.2807574336740416e-27  4.5019672320310286e-27  3.9247784098967456e-27  3.4166369896586512e-27  4.5858737734829586e-27  3.9125156440630771e-27  2.8390090633947916e-27  3.0275584903699064e-27  2.1635701281924844e-27  3.0492229766866184e-27  3.4682474780760974e-27  -7.3518522310559766e-28  4.1247934623500440e-27  4.4578163896363788e-27  3.9127009565208524e-27  3.9567892815861690e-27  5.0975154835677816e-27  3.9459493542639990e-27  4.3374244431540449e-27  4.3121903181888867e-27  2.7909360468557724e-27  4.2201280630171809e-27  1.8017710512619878e-27  4.9542876128210569e-27  3.5447024541486669e-27  3.2271530093697066e-27  4.9532401377163056e-27  4.0451034740423611e-27  4.3393289541275956e-27  4.3318367545904400e-27  3.3737205482748465e-27  4.3662573907981528e-27  -3.2682693062371413e-28  2.5758615948519503e-27  4.0636402950913943e-27  4.1034079441809389e-27  6.2389101260834451e-27  9.5795728074734293e-27  5.4184007975582043e-27  8.6368201171905154e-28  4.5203772448303208e-27  4.1972199157035044e-27  3.6831653624091660e-27  3.9874530806130127e-27  3.2956050751578482e-27  3.1698055985972691e-27  3.9732561646448451e-27  4.5917019499183228e-27  3.9365350366236248e-27  3.9634785000446742e-27  4.2951052610548118e-27  1.1691456733611637e-27  6.1401611768729344e-27  3.5258208877194102e-27  3.7865675802041589e-27  4.7472344602382993e-27  3.9730020300357768e-27  4.1902981008451821e-27  3.9927961886659735e-27  4.0483057202432524e-27  4.0622009812795533e-27  4.0657428916381257e-27  3.9382526089184052e-27  4.5605320565977064e-27  3.3861525273186217e-27  4.5348478460591141e-27  4.1770432948855992e-27  3.5211924286180187e-27  4.0379022224537551e-27  4.4439590243018933e-27  4.4462141980961739e-27  4.8769144740939908e-27  4.5477889156629144e-27  4.6216607827290759e-27  3.1627383800358359e-27  3.3725751438432585e-27  4.1061188032377793e-27  4.0426172414615698e-27  -5.3118706079860737e-27  1.0516074757883482e-26  1.0481429038943431e-26  3.9213476727517293e-27  4.3149994554945348e-27  3.6868889613379688e-27  5.2569859966605420e-27  3.8823510258726068e-27  3.8844131537806844e-27  4.2949695144209248e-27  4.2784818472186373e-27  3.6945516881528985e-27  9.6055653553927518e-27  8.5502046802317799e-27  3.1764264948386037e-27  3.0012113973620163e-27  4.0598365572112081e-27  4.0379031111880319e-27  4.0745130744102476e-27  4.0832078967357627e-27  5.6960986142222635e-27  3.7304460795596534e-27  4.4657594816132776e-27  3.8507253648046448e-27  2.7186727274522842e-27  4.4261991195792002e-27  4.6870015038551309e-27  3.7314751591700367e-27  3.9163375234634308e-27  4.0909467070464106e-27  4.1991475333630212e-27  4.0027219202121021e-27  4.0419258607209991e-27  4.2902732983285748e-27  4.7420311282403865e-27  3.6693683335451139e-27  3.8121966028062819e-27  4.0841495280219139e-27  3.8653482957567487e-27  4.1319697644962170e-27  6.1094341643685330e-27  2.7840855282945597e-27  4.2268553796676697e-27  4.0773012811805584e-27  3.6237945816036856e-27  4.2950549145328384e-27  4.2089334272070441e-27  4.4346770715819439e-27  5.0705104815449024e-27  9.1970190763338817e-27  6.2691932021426936e-27  3.5750859358420061e-27  4.1166172584095767e-27  3.3578916576111894e-27  3.8382939270269478e-27  3.6575537193999148e-27  4.7611458707520334e-27  4.0559654549500833e-27  3.9124708158746393e-27  3.8782625550924656e-27  3.5470966410582393e-27  5.2566764845124113e-27  5.6342961190734950e-27  2.7481996423086728e-27  3.7858491715146699e-27  3.7449687801712156e-27  2.9761423852616230e-27  4.1761903661777350e-27  8.6040407389247306e-28  1.7085025058400586e-27  6.7326830114429927e-27  -1.0915135107570346e-26  6.1949357654147510e-27  2.5725077496209255e-27  3.2643485635947892e-27  6.0852805144822961e-27  4.0182310716967499e-27  3.9690620451660674e-27  4.0091464447667940e-27  3.9834576981847879e-27  4.0802778264600418e-27  4.0763883810379283e-27  4.0820932941985550e-27  3.7585446805349180e-27  9.4036830228571448e-27  3.4838847410692986e-27  4.1327858915452807e-27  4.0248456812992462e-27  4.0580666174219920e-27  4.7134116306714645e-27  5.8211689076236080e-27  4.3747031082089260e-27  4.7387644599105249e-27  3.3178588095419348e-27  1.7023069453311177e-27  3.5212808508243275e-27  5.0624801090064037e-27  3.8391905701337996e-27  4.1240961505385187e-27  3.7296310070938061e-27  5.7231562783006308e-27  -1.2124422443805823e-27  5.5451871151527439e-27  3.6043319228359968e-27  4.0592331206004800e-27  4.6885009590410691e-27  3.7500755138972853e-27  5.4512509599839943e-27  3.1688533483940818e-27  3.9779367022852757e-27  7.6093237702934248e-27  3.9995990291496178e-27  3.6774702835171706e-27  4.0838769051039210e-27  4.8762702220282658e-27  3.4788741894813962e-27  3.9122101473197406e-27  4.0211329790585846e-27  4.1423843517693780e-27  3.6661995359149446e-27  4.6064214959700188e-27  6.1236945716311951e-27  -1.2292823791840534e-27  6.4254476857392197e-27  1.3755101566470500e-26  2.0540678373123212e-27  3.3692254766885866e-27  3.7467007903896522e-27  2.4696215189156364e-27  7.6016542889292980e-27  6.0579738234216077e-28  2.7758070527742678e-27  4.6875176101897654e-27  3.9865787162963000e-27  4.9507921028759431e-27  4.1901223659800529e-27  3.6062453180321277e-27  3.2192623925147523e-27  4.3975493472615404e-27  4.4845193975442539e-27  4.9654974512444197e-27  4.0854214396498851e-27  4.0632839109017490e-27  4.0845056616033297e-27  3.9501968607856132e-27  4.1217342366441278e-27  3.0043776532532509e-27  5.8027181005659594e-27  4.5694428342859492e-27  8.9994268588336830e-27  -1.7830834764664796e-27  -8.9539432999108011e-28  3.9610381027403107e-27  3.9428570176632479e-27  3.9562743077713616e-27  5.3540871275024644e-27  -4.0467900126378910e-27  4.0694475743581132e-27  4.0864781550231941e-27  7.6783543510718223e-28  3.2833796297955436e-27  3.2789250429923538e-27  6.4138056133139139e-27  5.9227849424532021e-27  4.0239391595206206e-27  4.1019122136980086e-27  4.2785696855817291e-27  1.5446899278823447e-27  3.8102488616865336e-27  2.7870699616710114e-27  5.5630716209720745e-27  3.4985669024294399e-27  5.4363565067992483e-27  3.6776307785949998e-27  2.7346845548043997e-27  4.1676559063667423e-27  4.0330448812460792e-27  6.4773797050928429e-28  4.0325161610982567e-27  3.9507754117360581e-27  3.7529111937700095e-27  4.7000060408649411e-27  3.5691917509608656e-27  4.1787003178777695e-27  3.7350286080279816e-27  2.0411742913488931e-27  4.0880266116636140e-27  3.7075068724110997e-27  2.8980047600268435e-27  2.9831412916757357e-27  3.7512105188424397e-27  4.1585448862480562e-27  1.3013105676119008e-26  1.0073412862511874e-26  8.1923053024951170e-27  -3.3657474107696325e-27  4.7171512414860107e-27  3.4524863302658558e-27  3.9848169706019502e-27  1.0227899887334296e-26  4.8535484171271943e-27  3.5459812091903138e-27  4.7141449185883933e-27  2.0592825974361889e-27  4.2676779115176049e-27  3.9745838048778668e-27  4.3085260901894324e-27  4.2614665169695572e-27  3.9118116053198024e-27  3.9742307282141934e-27  4.5256866532733869e-27  4.4317015857817917e-27  2.5937709600646929e-27  -5.1238508203143427e-27  2.4585271054549660e-27  1.7574892299332325e-26  7.6220593282967278e-27  1.6307438269637584e-27  2.3062287627225138e-27  3.2473913910228690e-27  5.6511689276865851e-27  3.7869061912012020e-27  2.0601075545592348e-27  4.8327328101656041e-27  3.3937966330052518e-27  3.1252427351728429e-27  6.6646624115017633e-27  1.4015824459616984e-26  4.0416050890750252e-27  3.8248274924906162e-27  4.2415948301694287e-27  4.1999643581363573e-27  4.1535422229895743e-27  3.2004762807795310e-27  3.6337968159720529e-27  4.0141595333281491e-27  6.8756833194641016e-27  3.2148413760849863e-27  4.2484038574489284e-27  3.6794919559030313e-27  -2.2763458851691373e-28  4.1391267600293992e-28  8.8681106467499651e-27  4.8410854801496705e-27  4.9476023186833540e-27  4.8968561692283646e-27  1.3492158959306855e-27  2.5802873562300804e-27  1.7070987545351521e-27  1.0477598929564037e-26  2.4055044122458064e-27  4.6694150507114345e-27  3.5272610299060390e-27  2.8685545549536716e-27  3.7614844563342559e-27  4.0486457608631781e-27  3.9496034752468308e-27  5.6709241669304527e-27  4.3483630421384609e-27  4.1042434043259824e