<?xml version="1.0"?>
<VTKFile type="UnstructuredGrid"  version="0.1"  >
<UnstructuredGrid>
<Piece  NumberOfPoints="5363" NumberOfCells="21451">
<Points>
<DataArray  type="Float64"  NumberOfComponents="3"  format="ascii">25.53210067749023 20.91554069519043 3.662621021270752  24.64022121913131 20.52479818049426 3.111516921622141  25.40014418965537 19.7409081813928 3.504540786081332  25.47844600587739 20.93652764537671 2.782781689627657  26.87431907653809 20.6636905670166 3.65421199798584  26.71198081970215 20.06856918334961 3.971155881881714  27.47262954711914 20.01498985290527 4.042460918426514  27.50098789353097 19.95275240646035 2.825362778490787  25.21023941040039 20.48649978637695 4.294004917144775  25.56393051147461 19.82011032104492 4.613272190093994  24.84669286125188 19.12699579537363 4.308475955158785  24.25124931335449 16.9232292175293 3.839155912399292  23.62079219411703 17.71635839041461 3.438934459050593  24.91794444712747 17.969963950701 3.674418218386297  24.26508219196842 17.91474954301271 4.45968573537196  25.40210055016541 18.7005834953907 4.245071725913613  26.10738115021834 19.38786728368807 3.878585753574675  24.22241973876953 16.82268905639648 0.1048400029540062  24.96740913391113 16.9923095703125 0.1048400029540062  25.10088182776962 16.32859386412962 0.6982931597809763  24.43066641118309 17.26933488711345 0.7030903730699314  22.70553970336914 18.96254920959473 3.76114296913147  22.86960029602051 18.0958309173584 3.376245021820068  23.08367986406609 17.88379882902383 4.218324751064866  23.7565240844104 18.636424928622 3.840160079712152  25.78784942626953 17.10840034484863 0.1048400029540062  26.71636009216309 17.31826972961426 0.1048400029540062  26.09200087350222 16.59334048441956 1.401187053006029  25.36249413455128 17.69333778070426 0.9995273993844134  23.50580796895439 16.6007886504894 1.381349100362961  24.14055961891436 15.86831180802774 0.7475654527574324  27.41514631241733 20.926719962632 2.218434162242338  26.36919697999709 20.25769919244069 3.042712584387993  24.60283088684082 20.78594017028809 4.613077163696289  24.71673011779785 21.21346092224121 3.982189893722534  25.99531936645508 17.91485977172852 0.1048400029540062  28.96211051940918 17.39859962463379 1.783393979072571  27.47498179028799 17.07161671942419 2.181772384841292  28.20321611918574 17.96343596454332 2.685608889136279  28.13351968103182 18.05416881365148 1.37033134937028  23.0262393951416 18.52874946594238 2.655386924743652  23.00149917602539 17.66802978515625 2.485580921173096  23.67821359931972 18.62548815477596 2.833465040361401  26.08329963684082 20.30091094970703 3.974960088729858  26.57649040222168 19.36319923400879 4.312990188598633  24.71633911132812 16.45649909973145 2.963169097900391  23.99206924438477 16.30480003356934 2.676959991455078  24.64598743730896 16.57737457780584 1.642623327928124  25.02506316369179 16.99005349841033 2.368206215069146  27.51330947875977 16.55180931091309 0.1048400029540062  27.61574935913086 15.63228034973145 0.1048400029540062  28.48584938049316 15.98626041412354 0.1048400029540062  27.83376860762075 16.66080365631252 1.135948366822659  26.13567924499512 15.31645965576172 2.071340084075928  25.56086202892799 15.64233057942715 1.301221879805763  26.57564690235424 14.62113167432735 1.101179555992562  26.91110351620133 15.81667943609017 1.182853804702555  24.63039016723633 15.60219955444336 2.254585981369019  25.37531089782715 14.98923969268799 2.031829118728638  24.82724462481579 15.03364628008298 1.086864124090253  26.24419975280762 21.09790992736816 3.367141008377075  26.98089981079102 21.50266075134277 3.153851985931396  26.22308997209591 21.2784162019722 2.290468961214058  24.76560974121094 13.98801040649414 1.288892984390259  24.17682075500488 14.3007698059082 0.655269980430603  24.05278717219591 14.92487767433013 1.117275804891898  24.81435012817383 20.22183990478516 4.96288013458252  23.87445948371823 19.80992426389664 3.76777612113791  23.78620069032061 20.58053458154003 4.938235566394593  26.82957077026367 23.57912063598633 2.965933084487915  26.46625271274807 23.7151547701246 1.466634776818756  26.38707400357703 22.56845611446268 2.181535477336161  27.35357276094996 23.47734553926368 2.161756008297063  29.07257080078125 16.87462997436523 1.194694042205811  28.64956092834473 17.02593040466309 0.1048400029540062  29.46138000488281 16.224609375 0.6878420114517212  26.48044967651367 19.87598991394043 0.1048400029540062  25.16401862211831 20.11064861030517 0.9435449889505493  26.74307586740657 19.79145720822484 1.425600610752474  25.73929454053961 20.86372887607358 1.081677552758436  28.16522957432089 19.11620970918696 1.777088324941769  27.79170843179631 18.95261155639788 0.7251062200170498  26.85724191883127 18.22442647159266 1.130135781480168  26.98884010314941 18.29817962646484 0.1048400029540062  27.9638500213623 18.36568069458008 0.1048400029540062  28.41813617927023 20.28146282840785 2.118841775948675  27.71421794475399 20.26301866988897 1.051466329691694  28.25406917370778 21.23822539620396 1.283121516818162  27.18901062011719 20.61051940917969 0.1048400029540062  27.83649063110352 20.99832916259766 0.1048400029540062  27.92489051818848 20.3713493347168 0.1048400029540062  24.09730911254883 15.20571994781494 2.042052030563354  24.30995846095904 15.81075127572639 1.508230745984913  27.44669914245605 19.79690933227539 0.1048400029540062  25.28479957580566 18.39137077331543 5.263895988464355  25.27685928344727 17.63846015930176 4.492465019226074  25.97540092468262 17.93325042724609 4.437994003295898  24.93025970458984 16.08307075500488 0.1048400029540062  25.36709976196289 15.15876007080078 0.1048400029540062  28.20903015136719 16.77741050720215 2.84505295753479  28.30839920043945 15.92010974884033 2.116293907165527  28.75000953674316 16.71175956726074 2.03485107421875  27.77742958068848 23.07222938537598 2.978637933731079  28.29424095153809 23.90033912658691 3.09664511680603  28.72182083129883 23.22969055175781 3.168214082717896  28.37358321811812 23.05342941311557 1.870081996146004  22.31538009643555 18.29113960266113 4.194077968597412  23.11439602644595 18.55641017663681 4.760988062585535  23.45924309005772 21.05776126888179 3.085264706037115  23.71204700902584 20.8307861066118 3.880954492854891  24.31056891606134 17.77401379621242 2.883459512456558  24.80171401247263 19.00376364398918 3.087871230999264  23.74287033081055 21.91950035095215 0.1048400029540062  23.86343002319336 21.11713027954102 0.1048400029540062  24.24159240375844 22.17816250432941 0.9708605766927259  23.52601385749329 21.29193245429365 1.152527426721781  27.20523067234524 18.5523522738769 2.431070879800902  26.90821971929372 17.96014701607408 3.181765734581906  27.02240586914218 19.13743403586577 3.488851090709712  27.98250466297939 18.31357601577654 3.617222948526095  27.4468415714245 22.02844490512469 1.971012098759148  26.02940409569038 22.09384560462804 0.9527963886153199  28.44001007080078 18.82366943359375 0.1048400029540062  28.62634086608887 18.06648063659668 0.6365789771080017  24.64440813453371 21.341354363786 1.404409222439662  25.43204913466433 21.82694046133012 2.040560178752326  24.45220294166002 22.55119398972017 2.362110832589655  25.25080461672044 21.75039128046954 2.591415775071686  22.39909821655769 17.92021307069677 5.003935663339652  23.26860541374737 17.41431485040103 5.041101732048283  27.01055908203125 18.26531028747559 4.307395935058594  28.23689079284668 18.08246994018555 4.320349216461182  27.42716026306152 17.55554962158203 3.974586009979248  24.18782997131348 21.297119140625 4.599335193634033  23.26022359056116 21.54308557283478 4.419413018641663  25.54183147102888 18.27299156005724 2.352944149645082  24.13986923579026 19.01876072858251 1.503832765418269  25.71717394598581 19.0049689820862 0.9070343545477592  26.17366981506348 18.57007026672363 4.711475849151611  26.00798925253133 18.39822474423426 3.568385246306509  28.47664070129395 22.50946998596191 3.005481004714966  29.19828033447266 22.57998085021973 3.227612018585205  28.74547958374023 21.76472091674805 3.257937908172607  29.11039169224728 22.1741009386947 2.325393248728374  27.02879905700684 15.06214046478271 0.1048400029540062  27.96825127352693 15.09806656681669 1.055400538708676  23.12031936645508 17.27710914611816 3.075532913208008  23.17334938049316 16.66971015930176 2.454080104827881  23.83094738926589 17.10653008726506 2.549667387690952  28.29681968688965 18.82641983032227 4.690040111541748  28.44822634088316 19.31108313473913 3.25280425074911  29.22728207857789 18.70225320024703 3.97106635016597  22.29488945007324 21.24761962890625 2.77382493019104  22.55887031555176 20.43898010253906 3.102210998535156  22.80563926696777 20.52289962768555 2.429033041000366  26.24226521404978 19.10460245480603 2.622963429698906  25.2685829320665 19.92986562053322 2.13459076142049  23.94557202249319 20.2063083291357 1.187308805571664  23.76849558742123 20.60870692274447 2.082584151192689  23.74823677194521 19.74289129641997 2.499057851425027  22.97905921936035 17.27164077758789 3.802867889404297  23.63125991821289 16.86124038696289 3.343070030212402  22.99531936645508 19.86771011352539 2.036087036132812  28.38871955871582 20.3844108581543 4.074326992034912  28.45228958129883 19.58568000793457 4.581381797790527  23.39269065856934 16.90222930908203 4.306264877319336  26.2363082944881 17.37036062982622 2.561331207930733  23.87387605127591 17.86089654543213 1.494739748342444  23.28480911254883 17.96022987365723 0.1048400029540062  23.28594017028809 17.05454063415527 0.1048400029540062  24.12240982055664 17.73043060302734 0.1048400029540062  23.39010120780661 17.54885346847515 0.7627619713446552  26.09563064575195 23.0306396484375 2.971235990524292  25.37555017430565 23.02409334568385 1.788430093101289  23.26152038574219 22.56159019470215 0.1048400029540062  23.10268020629883 21.63809967041016 0.680279016494751  25.66716003417969 15.86690044403076 2.398330926895142  27.74885940551758 17.62026023864746 0.1048400029540062  28
[...]
<PointData  Scalars="c_HbCO2"> 
<DataArray  type="Float64"  Name="c_HbCO2"  format="ascii">3.1264162241256488e-27  4.7268167418939548e-27  3.6731360453531300e-27  4.4389560181883674e-27  3.6058043070500319e-27  6.0801616007863458e-27  3.1353737654074981e-27  4.3031400970079693e-27  4.8880079976383730e-27  4.2795039934567458e-27  2.6355026571563161e-27  4.5133336554746892e-27  2.8950811265689283e-27  4.6571232792854681e-27  4.8180549091849190e-27  9.2739589390134577e-28  5.7736426029925095e-27  3.8390011328350643e-27  4.1622024532578517e-27  3.9510132099010442e-27  4.2703352983142183e-27  3.9568225182533936e-27  4.9394105967377506e-27  6.8991766411482086e-27  4.4286948445944465e-27  3.5304634428177877e-27  3.9556863054742143e-27  3.9917572498777522e-27  4.2428887786949435e-27  3.5512181054152561e-27  4.4170517521498857e-27  3.9801715641397169e-27  3.2789346739483094e-27  2.6015056796956575e-27  3.8025823965582525e-27  4.3156837541953081e-27  1.5600089069167833e-27  4.4761461258528387e-27  7.2591117374167433e-27  3.3088662277538063e-27  2.1768774570733099e-27  5.1443636428286847e-27  4.1114425636296959e-27  2.8844692067166583e-27  1.5723041623182434e-27  4.5535423420972428e-27  5.4248835061873523e-27  3.3390114907296566e-27  4.7548402406646908e-27  4.9324079560463405e-27  4.4574361162663621e-27  3.8543928074168946e-27  4.2435439610965849e-27  2.8231887060774475e-27  4.5977279566585635e-27  4.1631085450882705e-27  4.5323535965096653e-27  4.2869735431403028e-27  3.7299503024146188e-27  1.4329733274246811e-27  5.6272947449641915e-27  4.4155532042338280e-27  3.7190615295065680e-27  8.1571354769603026e-27  3.9135211051658707e-27  5.8625128004208843e-27  5.8294096372275868e-27  3.9526152948083687e-27  3.8792565763364074e-27  2.6477157622193416e-27  4.6499414667598163e-27  3.9719094262695333e-27  4.2963379885631350e-27  4.7688757849295431e-27  3.2578071470312532e-27  3.5535726888389714e-27  4.1993388407840791e-27  4.0662970277619176e-27  4.0066759767863408e-27  3.9347967019465277e-27  4.1042836494245742e-27  4.8616453019326678e-27  3.9409028091102060e-27  3.7912399294762634e-27  4.9833315693191250e-27  2.7120446602317802e-27  4.0719092046964214e-27  5.2940176790749358e-27  4.3501547666160121e-27  2.6237153951977839e-27  4.3613352678152218e-27  2.8389639624396521e-27  4.8602816423364350e-27  2.8653004644006224e-27  4.8268333488724216e-27  4.0646410550666776e-27  4.5598864985786495e-27  5.0915082889605781e-27  4.1460648602434500e-27  1.0114762696012988e-28  3.5483604055021224e-27  4.9044495657975449e-27  3.8711452478285174e-27  3.4039619282643448e-27  4.1565645749478754e-27  4.4282161283746668e-27  4.3932291953258953e-27  2.2423763582207977e-27  4.9554626861514946e-27  4.3344148671420774e-27  3.3622226670025117e-27  4.4476775772799916e-27  3.9678514776860768e-27  4.7535216977527052e-27  4.5842461554907918e-27  3.2759894438991758e-27  3.4562846821296813e-27  1.7547170527340249e-27  5.6228964399558778e-27  4.3238940917228638e-27  4.1122415189515170e-27  3.8177009688725692e-27  3.6519428720646742e-27  3.0994474841653654e-27  4.0014909399357371e-27  4.8647089318622581e-27  3.9599973646532519e-27  2.4180089226996360e-27  2.2366714738138828e-27  3.9414516712392842e-27  5.0388780088770219e-27  1.2562045987876691e-27  7.2785472214919190e-27  4.3572512207276186e-27  3.8672813454757764e-27  4.0020994206869464e-27  3.9456832227055967e-27  4.0728286497276516e-27  4.1045147963940473e-27  4.1193391577638644e-27  2.4723305270951068e-27  2.7434828002731275e-27  3.7875106716783595e-27  4.9356663663097508e-27  3.9492827241172210e-27  3.7966278210435388e-27  6.7547391102886306e-27  7.4289595363177889e-27  1.9284873413186585e-27  8.2339563876887028e-27  4.2947416752384623e-27  3.8139520579977435e-27  3.9905304191267535e-27  2.1545389433564693e-27  2.9742979384267717e-27  4.1240989192623034e-27  4.1331467116183952e-27  4.2295359267501191e-27  3.5091602988693759e-27  3.1887500721420766e-27  1.4624122494927212e-28  7.1255789142530480e-27  5.8811476172200046e-27  4.4647581387950812e-27  7.0262926397896400e-27  2.7497536833675051e-27  4.3272874663718836e-27  4.0277642466692408e-27  4.8125613566058976e-27  4.4740432452227754e-27  3.3725757076594861e-27  3.9332042418921190e-27  4.3636165179059048e-27  3.3904310327089280e-27  6.0891170419044095e-27  3.6574926938154255e-27  3.5766313975129568e-27  3.9828838999916701e-27  3.5619193444834664e-27  4.7047758540347239e-27  4.3149895885917022e-27  4.9725683855091379e-27  3.9168839075193417e-27  1.9456878459746289e-27  9.8378103951997024e-27  4.3345374008858386e-27  3.1521749328409293e-27  3.3623550420588459e-27  4.0540267936165856e-27  4.9268018903901375e-27  4.7372181723735248e-27  2.5966840455483417e-27  5.5803349340309607e-27  3.6532681613455003e-27  3.1014891749986834e-27  2.2894007299276873e-27  3.1720315781475854e-27  4.0112063509445081e-27  3.1245193854410200e-27  4.9732172763873858e-27  3.5225085018846960e-27  3.8458263003842742e-27  5.3568089811703786e-27  4.0200957062427490e-27  4.0966807367388752e-27  3.2241549256122133e-27  4.5297115939127457e-27  4.8536448349251487e-27  3.0409280548359995e-27  8.7347082315973112e-27  4.5144998688430246e-27  3.9150739937234441e-27  6.0990425863323807e-27  2.3058806785945348e-27  3.8899108652327985e-27  4.1620273644670953e-27  3.3302851924575889e-27  3.2575638808944912e-27  7.1186235146134136e-27  5.0390432543200552e-27  5.0931025215439372e-27  4.7612229210220903e-27  4.4355596429742786e-27  4.1786675436006996e-27  5.3848980968657832e-27  2.7557060761059695e-27  4.1160259897001086e-27  4.5259376579322791e-27  4.3753563091034884e-27  4.8997566345564376e-27  4.2825979711020705e-27  5.2550936967116023e-27  4.3072094632469499e-27  4.0230352029313536e-27  4.4374928862599772e-27  3.7902079317428921e-27  4.7816278743932398e-27  4.5107132087460576e-27  4.2533489208111978e-27  3.3578897160722535e-27  4.1193909840748329e-27  4.1866861798513020e-27  3.3832263110291767e-27  3.6048781910881161e-27  4.0713033456024588e-27  3.8332245649826979e-27  3.5561645341884508e-27  5.0422537299170323e-27  3.6870373434902650e-27  3.8458318567190359e-27  3.4413781359955133e-27  4.8852742816123352e-27  4.0541753073262176e-27  3.9759141682971321e-27  3.8105936122212697e-27  5.7487146522865665e-27  4.1665689173218081e-27  5.1537796607763940e-27  6.0892045287294263e-27  5.0725027811823627e-27  2.8435824351369976e-27  2.9233453129140876e-27  7.1510321230453268e-28  4.5307864337550833e-27  4.3116242747819771e-27  3.2110444454265944e-27  5.9800962554145718e-27  4.1466581275907036e-27  7.4912277651982297e-27  3.3733007175640697e-27  3.7357017558827084e-27  5.0265525298446581e-27  3.3499284384887265e-27  6.1964099154704228e-27  1.2173920340114966e-27  3.4827454201743835e-27  4.9756715934206949e-27  3.8955088587912315e-27  4.9157571956771638e-27  4.6011348645576081e-27  4.3548276509368006e-27  4.0913783221440152e-27  5.1492757211860326e-27  -6.4868213295902778e-28  4.2097875627017417e-27  5.2699010383289175e-27  4.1005124767567433e-27  2.7230909212453513e-27  3.5345506967474398e-27  1.7447142376185371e-27  5.2754877816899471e-27  4.5661104512975199e-27  3.6037007695433702e-27  4.3947706945822229e-27  3.3717325008271581e-27  8.6813343999837003e-27  3.2242740411444056e-27  3.4106211547758467e-27  4.5770368741346240e-27  3.5116452736437271e-27  3.0486317596980193e-27  4.6013593775349116e-27  3.4997474084520627e-27  4.7471258492875442e-27  3.6206365651189141e-27  3.5870233425883372e-27  3.5301796137265130e-27  4.3615372326600511e-27  4.1586196065779328e-27  4.8892575921053143e-27  3.7932607915093686e-27  3.4962184761324642e-27  2.9444637655105512e-27  3.9950558720891671e-27  4.2193215900008865e-27  3.4216724818733988e-27  -4.2686279863835739e-27  3.2472604321037958e-27  4.3679423849170741e-27  4.4210133130352314e-27  4.2597223794658400e-27  4.9235652249291392e-27  4.2637599513691249e-27  3.1885521753032526e-27  5.4799147949175164e-27  4.0706795724423151e-27  3.8747702888216630e-27  1.7580255796995366e-27  1.5233027082768770e-27  3.5764420604890045e-27  2.6217340175572272e-27  4.1033734548069855e-27  3.2779482196497067e-27  -6.3636930262695340e-28  2.7254122513111902e-27  6.6448360079123394e-27  4.1830988640777857e-27  4.1060412080776677e-27  5.0855634449300193e-27  -3.4830368450385447e-27  3.6258172592150915e-27  2.9256207104056368e-27  3.6504290296278888e-27  5.1714745482500894e-27  3.6543806898370961e-27  3.6180515752868689e-27  5.6915099127085850e-27  -1.6209373379014348e-27  3.8545647572868315e-27  4.0443396124947144e-27  4.5179421108410608e-27  4.2991484961658044e-27  2.7234775431522551e-27  3.8458356356703584e-27  4.1729909726363921e-27  4.5881344637455026e-27  5.1083365110480677e-27  3.7454694033253412e-27  4.5137144417282936e-27  3.3474041727235973e-27  5.2250969877652514e-27  3.6973803374485684e-27  4.5608545842487222e-27  4.8872923876002010e-27  3.9857397970692636e-27  2.7582405798933445e-27  4.0691205974541572e-27  4.0936523859679085e-27  3.9761929278271385e-27  4.8532351006294717e-27  3.4179289426710653e-27  4.4542582110136025e-27  4.2074127636320409e-27  3.8013518416443412e-27  2.8434654659324275e-27  4.4245594229495915e-27  3.8799417711955581e-27  4.4493128748933024e-27  3.8023699974771833e-27  3.9708538143764434e-27  5.9657819392511722e-27  9.7296234604986673e-28  7.4937699469414138e-27  3.1674497533549748e-27  3.2919870172239978e-27  3.1249272001965190e-27  3.1983830320633475e-27  3.9936464675230370e-27  2.7920494201748166e-27  2.3292916291190624e-27  2.3660147718501191e-27  5.1954246830635384e-27  3.7848899928055766e-27  6.2734511519050519e-27  1.5021455981036742e-27  3.6744678318244458e-27  2.4288970926648986e-27  -5.2997479605106903e-28  1.4348343220134404e-27  5.6923463193035459e-27  4.3535921914198639e-27  4.5789784792509835e-27  4.4944222691249919e-27  3.8501688236348172e-27  4.7889758873315165e-27  6.5717051624121271e-27  5.4868328899699865e-27  2.8816355031726922e-27  3.6289647645860680e-27  4.7950580691327048e-27  3.9126021055319762e-27  4.0500938872193919e-27  -1.4885837879230695e-28  4.5292963975369854e-27  4.0524633405190670e-27  4.5073238831093295e-27  4.0713792940026197e-27  4.5173948285139054e-27  2.6483168682418612e-27  3.4218242326716772e-27  6.2778332713721157e-27  -1.5487181535499769e-28  3.5965644046296493e-27  3.6702399013911312e-27  4.0187586939877506e-27  4.1848312435518141e-27  3.4042622879953841e-27  3.9233231645125025e-27  5.1538598197274758e-27  3.6609598393351297e-27  3.5026578832528006e-27  4.7522511665178034e-27  4.0950632669576050e-27  3.5491364399592356e-27  4.2567713442732165e-27  4.3050650916405884e-27  4.2197954344546824e-27  3.6377059378886675e-27  4.0592083779285601e-27  4.7805250131466535e-27  4.3864715603694680e-27  2.5467605151662042e-27  6.6469820060796480e-27  3.4239073650275243e-27  4.1884202054255923e-27  3.7456401813412978e-27  8.7622674566177766e-27  3.9492349004662400e-27  4.1650539199586806e-27  4.7726458081253493e-27  3.7112998270816034e-27  4.2470305629518580e-27  3.8688308541651296e-27  3.4698476582118105e-27  4.2620946374484131e-27  5.6320285840537413e-27  5.4106717206669121e-27  7.6097822717078268e-27  4.4804869742171523e-27  4.6772699214641900e-27  3.3480673789395309e-27  3.5946646913982120e-27  4.5377288068902846e-27  4.3488511511789755e-27  4.2012061816320579e-27  3.5848946722786943e-27  3.2642840955963197e-27  4.8520752644140580e-27  4.1723263412636022e-27  3.8621981211588901e-27  6.1971953879311670e-27  2.2273549124584741e-27  4.4319735938665239e-27  4.2104932214253835e-27  3.9684521672701176e-27  3.9429442721244716e-27  1.6522194724415181e-27  4.5451439498102139e-27  4.0714652725965382e-27  4.1710878710243181e-27  4.3851017057093934e-27  3.3580086331182879e-27  2.5740040137808284e-27  3.7399233487334131e-27  4.3389691608166649e-27  4.6562097612551185e-27  2.3634857164805526e-27  4.2849681639251076e-27  4.2332249869544641e-27  3.8768145324896414e-27  3.7074128010668516e-27  4.0575082124158474e-27  4.9032195867062167e-27  9.4813322219260886e-27  4.6957384782830795e-27  7.9613595921638214e-28  3.2003283361828228e-27  3.1423998372012871e-27  3.3061471968238425e-27  3.5860347077090452e-27  4.8584747518678528e-27  3.9161838938526376e-27  3.6079913551944621e-27  3.6627759976552941e-27  3.9337779423862429e-27  3.9729484791718030e-27  2.6237623159838519e-27  4.1337467544802067e-27  4.6399623654805895e-27  5.5864211199995924e-27  4.4101761140126924e-27  4.7790090684264476e-27  5.0120298048552329e-27  3.3278602455855106e-27  4.1813669555099332e-27  4.4984185472990964e-27  3.7257591904815730e-27  3.8294335955799052e-27  4.6211073568067257e-27  2.8367931963595573e-29  1.1734430058828616e-27  3.3894381674704536e-27  4.6296435142735856e-27  4.3417843456319674e-27  5.3292003708743550e-27  4.5696915717233926e-27  5.4908067025681398e-27  4.7286629932866112e-27  3.9438574423953957e-27  4.1288942117906118e-27  3.7763887668008903e-27  2.5916338195257231e-27  3.0069527356625444e-27  4.3465952165864141e-27  3.6470310543303279e-27  8.3203433563338915e-28  2.5772668787204263e-27  2.8745072641719524e-27  4.3906483353523930e-27  4.3064163469118363e-27  5.5873455018068715e-27  5.6950076280300818e-27  4.3766202710517721e-27  3.1675108282821033e-27  4.0552306767125198e-27  4.0697208970684177e-27  3.9484093966425641e-27  4.1175048658504053e-27  2.2791565596791173e-27  3.8609881588906845e-27  5.1002495428870930e-27  6.7086436304127992e-27  4.1236340342780059e-27  4.3213266780133798e-27  4.0419004306947190e-27  4.7025203194200832e-27  3.7136403829994396e-27  2.7329409910157732e-27  6.0391012104166594e-27  2.8678391614802347e-27  4.5262100175316231e-27  2.1198848478819744e-27  9.0060094063246650e-28  4.3447766807075180e-27  3.1289210583163097e-27  5.4440968478646142e-27  -1.2592419924342675e-26  3.9331818260442295e-27  5.0976891838732877e-27  4.5195546930175661e-27  4.2115165459528239e-27  6.3011132971246915e-27  2.2876874096939438e-27  4.2890223001581145e-27  5.4478419186827004e-27  3.1785042075085755e-27  5.0100221417329661e-27  4.1019067616372417e-27  3.8666345147548002e-27  1.0463938551374934e-27  4.1651384293591666e-27  6.1437556523432103e-27  4.3408094256935994e-27  1.8784127059160036e-27  5.5553653395332628e-27  6.1210682143782967e-27  4.0906710640019417e-27  5.4728696080308281e-27  4.8320204269554836e-27  5.1165422440987316e-27  3.6989413927305684e-27  2.7369929576071631e-27  2.4704750181997622e-27  4.5082346206785143e-27  4.8771161186752372e-27  3.5421310400162738e-27  4.3107866526083368e-27  4.5364466258514377e-27  2.6209730952666015e-27  4.1974281995312366e-27  3.5357579323725545e-27  5.0459580337647457e-27  3.8281856561760044e-27  2.8992060858428104e-27  4.3469645747923380e-27  4.1438311035696813e-27  3.9768843255704911e-27  2.5368656818943595e-27  4.0955916948976690e-27  3.8521235621628234e-27  2.8635986095411169e-27  7.3102073228145525e-27  2.0831970281823935e-27  3.6790819596743896e-27  4.2342089643875427e-27  3.0461370263372657e-27  4.5076115913962102e-27  6.1276624733142219e-27  5.2294434957205591e-27  3.4393151561833391e-27  6.2859068805142658e-27  4.1541110875065704e-27  4.0468166711592584e-27  4.0638680695179859e-27  4.0209934341304298e-27  4.0980339628661128e-27  3.7898447171753973e-27  1.4797953613306454e-27  2.3672135071348916e-26  3.0340122496534731e-27  5.5387150891867737e-27  1.9799553580175502e-27  5.7262519583437005e-27  6.2392991885133285e-27  5.5572653251366171e-27  3.4241296151741186e-27  1.7726725978453794e-27  4.4540414813005288e-27  1.9048225235516735e-27  4.0291087026396786e-27  3.7141525263268330e-27  3.9367222414618898e-27  8.6348574668988688e-27  3.6316487987247861e-27  4.3459146932471259e-27  4.8249189420719738e-27  2.3680859396204006e-27  3.0194310057153309e-27  4.7613408743122150e-27  5.7294424753762108e-27  5.2359305496506929e-27  4.9099215830124657e-27  2.2998846564875196e-27  3.6053247882998908e-27  4.0515157411205966e-27  2.5069779900357249e-27  1.0144303583954114e-26  1.5757920385201861e-27  2.5507719193416771e-27  3.4109249264997476e-27  5.4109581482911996e-27  3.2506360308514760e-27  2.8248169054339261e-27  4.0655883001911786e-27  9.5393478790087363e-28  2.5550702306950166e-27  2.2974487516153138e-27  2.8737265593444450e-27  4.5028221062654386e-27  3.8256942040939616e-27  5.5064274591585222e-27  4.2126563250508438e-27  4.8794477338637521e-27  5.2053298551671810e-27  4.5849995963499259e-27  4.0089512539872027e-27  4.3517459574399486e-27  5.6619569651591508e-27  2.4104232724366501e-27  2.9390340037526292e-27  4.2925382459430550e-27  4.4150297985514880e-27  4.5153167322763208e-27  -1.1638625291543773e-27  5.4021341734533884e-27  2.7616515326713367e-27  4.1117807810931188e-27  4.5732636825541349e-27  4.2904659555718850e-27  4.0176374149333442e-27  3.1818264423000468e-27  5.3430261389753275e-27  5.5182400312241665e-27  3.7092397187795098e-27  3.6730532146849060e-27  -7.0729694710867434e-30  3.5638755066148912e-27  3.3659268140393252e-27  2.8060815056372627e-27  4.6749129224741039e-27  4.2357251848054830e-27  5.8011966214433545e-27  3.6060010973898877e-27  5.9128179752418784e-27  4.7891070944576160e-27  5.5944301918741897e-27  2.4167289344586181e-27  4.6359065727766883e-27  1.2845840566359681e-27  5.4280694367090373e-27  4.8902970996528612e-27  4.1587435788731125e-27  4.2184375460995810e-27  2.4472108781828318e-27  5.1759691223056920e-27  2.0833562662745162e-27  4.8516011599760380e-27  3.9420273861545981e-27  3.7855326375150803e-27  5.7049054364613365e-27  4.4200782636233989e-27  4.4798810113509933e-27  4.5546693276757570e-27  3.2179343355992835e-27  4.5693938004371873e-27  5.1458081715888143e-27  4.2492050265611997e-27  1.2853494989116752e-27  3.6529161881177692e-27  4.3336541411573749e-27  3.5976883917656696e-27  4.3196090301670951e-27  4.2297899178497222e-27  3.5008777073643905e-27  5.7183709577876984e-27  3.3102210056194166e-27  4.7449147045759186e-27  4.9264365564946868e-27  5.0546672031732914e-27  3.3309360731102414e-27  3.7226693374481411e-27  4.1068254891528175e-27  4.2267428106084192e-27  5.4521077386226208e-27  3.3506383730693523e-27  1.8248361128179665e-27  2.1993541197136110e-27  3.3521044809425888e-27  3.6838966372063840e-27  3.8380377573521360e-27  3.5415244174883201e-27  4.4069246841921846e-27  3.5157737377605558e-27  4.9448966142273759e-27  2.4856236710993409e-27  3.9068912020506963e-27  4.4413665692271805e-27  4.3054728267125327e-27  3.8119771580757120e-27  3.4618613358295867e-27  6.3886185238755573e-27  2.9327099558711866e-27  4.1044467761386802e-27  4.0747672102283926e-27  3.9135968630123706e-27  5.9114700135026713e-27  3.3755842311581339e-27  3.5758138113726385e-27  4.6151665869416595e-27  1.0496982067491734e-26  5.1094402445229576e-27  4.3388380699375752e-27  2.8656702587469548e-27  8.3888912259510845e-27  4.3269418393769408e-27  4.4669616657230006e-27  4.7761273856361418e-27  4.2696414452661996e-27  4.0630593482572637e-27  4.2680031124136530e-27  2.9961377020501553e-27  4.3766498801449532e-27  2.7436418146023323e-27  4.5950330399514547e-27  4.6031496776788106e-27  5.7766289938178014e-27  4.0924958447593700e-27  4.0923539668310870e-27  5.0200275604871210e-27  3.7063906663925425e-27  6.5189550747536735e-27  1.0870032492274148e-26  3.9887355161723437e-27  5.0268037511715293e-27  4.1287246868040222e-27  4.5286959427232238e-27  3.5712824362725884e-27  4.0947370363634582e-27  4.7159792529300037e-27  4.1504928105557211e-27  4.0439191283295732e-27  4.0936013018959013e-27  4.2037260951428365e-27  3.5810110521153849e-27  3.7486706905288299e-27  4.7507731226038099e-27  3.8651965701670055e-27  4.5068463441230740e-27  4.4438083119388293e-27  3.1641889923108038e-27  4.0517210967976393e-27  4.2569012584720191e-27  3.7780810077151489e-27  4.2199056516163045e-27  3.8703858167597154e-27  8.0559254584239943e-29  1.7371850576478384e-27  5.4329049303534639e-27  5.1019093369547075e-27  4.3431261943377444e-27  4.2365676119707703e-27  3.8731166726672727e-27  4.3056404011044603e-27  3.8960792338578925e-27  4.7109919101959659e-27  4.2451952210723204e-27  5.3354391310584650e-27  4.3396168316059847e-27  3.4193292211196162e-27  3.