<?xml version="1.0"?>
<VTKFile type="UnstructuredGrid"  version="0.1"  >
<UnstructuredGrid>
<Piece  NumberOfPoints="5795" NumberOfCells="23360">
<Points>
<DataArray  type="Float64"  NumberOfComponents="3"  format="ascii">26.96346855163574 10.26774597167969 31.82569885253906  26.64209747314453 9.712685585021973 30.9571647644043  26.83680725097656 9.368141174316406 31.87141418457031  27.88900028097448 9.606246273604775 31.81748713943611  26.95047187805176 12.38045406341553 30.13530349731445  26.93239784240723 11.72147560119629 30.72611045837402  27.85666560873491 12.12637529554379 30.74597406831619  27.5585729464389 11.99278398762119 29.68481489915548  28.17056846618652 13.03098011016846 30.96613121032715  28.72893524169922 12.53662490844727 31.16805648803711  28.35162734985352 12.57680702209473 30.45129013061523  29.01120567321777 11.49319458007812 31.07735061645508  27.93495329410579 11.29388507954816 30.23849162155587  28.19595036846246 11.27861497758785 31.58482300979686  28.48281303067207 10.34119516618197 31.1473712996707  27.63869857788086 12.90556716918945 30.42481422424316  28.55460166931152 12.13401508331299 29.95791816711426  28.7313117980957 12.04710483551025 30.51875686645508  29.06750106811523 10.64803123474121 31.34933280944824  29.15962028503418 10.64204216003418 30.51924705505371  29.09069442749023 9.94892406463623 31.05301666259766  26.15003403096106 5.94258762913828 31.61464229247336  27.59175940107312 6.07846775086035 31.77511970283447  26.58138680436603 7.117491203534246 32.34885367425007  26.38585590612103 6.67044958359404 30.7991463494142  26.81739807128906 10.90544891357422 30.47830772399902  26.42432975769043 10.24172019958496 30.07094955444336  28.00786650634896 10.15435105734787 30.24012742129997  27.11422573886168 10.71728622047777 29.33648317416864  26.83661079406738 10.38617610931396 30.86208152770996  27.62850805076544 8.577902218324414 31.53896408894676  28.51440620422363 8.890121459960938 32.10739898681641  28.81584358215332 8.401994705200195 31.39012336730957  28.35858329426963 9.29126545488981 30.93574961006853  28.9157772064209 10.11461162567139 31.87679290771484  28.46718978881836 6.485098838806152 32.18653106689453  28.86706924438477 6.31396484375 31.53086090087891  28.69504928588867 5.815907955169678 32.17713165283203  27.02448081970215 11.85476875305176 31.58847045898438  27.03812026977539 11.29126167297363 32.39451217651367  26.97434043884277 11.04350471496582 31.27414131164551  25.80500030517578 7.391848087310791 31.88694953918457  27.30708629226118 7.414065188688915 31.60199580748926  27.5589009873414 10.44371419786439 31.23024561788274  27.11867904663086 12.69825649261475 31.20135498046875  28.07128715515137 12.55630779266357 29.72138023376465  28.84530448913574 9.341158866882324 31.57943725585938  28.9443187713623 11.43446063995361 29.96147346496582  27.97263946403411 10.22787247946481 32.35832901541427  26.51159477233887 11.37203979492188 29.85788536071777  27.24435234069824 12.83586406707764 29.30901336669922  27.56658172607422 13.35258769989014 31.24087333679199  26.3837890625 8.909189224243164 31.13917541503906  26.62150764465332 8.630832672119141 32.11295700073242  26.17293930053711 8.116198539733887 31.50260925292969  28.24104554119627 5.187960375323141 31.73619566700171  28.54508972167969 5.216188907623291 32.46968078613281  29.12593078613281 5.319476127624512 31.43770980834961  28.67205047607422 4.502724170684814 31.79405975341797  27.99757957458496 4.46331787109375 32.54145812988281  27.93898963928223 3.986834049224854 31.59543037414551  27.25166680132583 4.825870893972983 31.58823715517238  27.19747924804688 4.027894020080566 31.98954010009766  27.11284065246582 3.658418893814087 31.21750068664551  26.39485931396484 3.927440881729126 31.69905090332031  29.17350959777832 9.134854316711426 30.79897117614746  26.3107795715332 2.891041994094849 33.58572006225586  26.62365913391113 2.226325988769531 34.19915008544922  27.10149955749512 2.799056053161621 33.67927169799805  26.23845673385199 3.476892965489231 33.88606362212148  27.9859504699707 6.937576770782471 34.44842147827148  27.3421143170988 6.827407695105331 35.55319378518249  27.26948144183415 6.468575613337436 34.25145476076509  27.49939772211724 6.040561868154662 35.0636229773681  19.91542053222656 10.74433040618896 38.49259948730469  19.94610977172852 9.857664108276367 38.18770980834961  21.14235550672289 10.27471129123756 38.79845195042704  20.81327712105984 10.70207556178925 37.35253039738533  32.82822036743164 19.20314979553223 38.07062149047852  32.91257858276367 18.3771800994873 37.8048095703125  33.27568501011447 19.18917403450212 37.28318304680815  32.58183381278117 18.93603798961593 37.25466432556418  25.08498954772949 0.463454008102417 38.83377838134766  25.3684196472168 0.09558500349521637 38.26507186889648  25.00940381935096 0.9608698497896054 38.00600908328587  25.81312260386077 0.8723156340637668 38.58110403654901  29.50457000732422 10.9754695892334 35.53081893920898  29.8074893951416 10.90530014038086 34.70655059814453  29.50317931132104 12.34687554127081 34.60804769156135  30.2639361831956 12.26682612572651 35.45012590987027  24.11541938781738 5.194726943969727 31.59728050231934  24.03335952758789 4.374146938323975 31.92173004150391  24.60001945495605 4.503707885742188 31.19667053222656  24.80891990661621 4.107397079467773 31.83527946472168  20.09869956970215 9.995880126953125 39.02400970458984  20.00617980957031 9.197901725769043 38.76840972900391  20.34049034118652 9.423279762268066 39.36502075195312  20.74946028058507 9.466475520521664 38.03348222514362  27.72801971435547 0.6290249824523926 36.74245834350586  27.63576655644409 1.864274817211176 36.35598882997595  27.46262849331762 1.271693124060092 37.98794912382079  28.64659762831765 1.705139193438511 37.50083060610005  33.73038864135742 19.90756988525391 37.95827865600586  34.45394134521484 20.59691047668457 37.8654899597168  34.49996948242188 20.07081031799316 37.45333099365234  33.80634696699604 20.82579157783631 36.90764718905221  30.20044039209425 15.32791496938898 33.91520740967427  29.92716808294223 14.10402943890873 34.82199210514282  29.45680956135388 15.44918809802281 35.19804777674647  29.64365030550715 14.42570135600475 33.73521239957319  30.20601081848145 3.667572975158691 39.89208984375  30.46084022521973 2.708698987960815 39.89208984375  30.9629379375953 3.046762261426558 39.00129957433376  29.90948490297071 3.75261777116434 39.18371150910571  36.97259902954102 7.092794418334961 38.98308181762695  37.30613708496094 7.357527732849121 38.35615539550781  37.76517868041992 6.823711395263672 38.85606002807617  37.46072418317019 7.831738043801661 39.1493187805933  26.78860857419974 12.51687203797752 37.14997344568989  27.46312808869176 11.79467216657777 38.24595007010387  27.73514197886697 11.35795874035866 36.35883065614445  26.64272946621096 10.52093492425368 37.53785348082197  23.58745956420898 1.665483951568604 39.89208984375  22.98687934875488 1.01648998260498 39.89208984375  23.97484016418457 0.9808350205421448 39.89208984375  24.05087234358385 1.257942412474385 39.09977645131762  33.99629974365234 12.10910034179688 36.85799026489258  34.69263649293735 12.49266608242597 36.34247847658728  34.30566772398601 12.90375215535799 37.35403427653561  33.70521344629493 12.79540968589027 36.62529834913276  29.53205871582031 11.21191692352295 33.23213195800781  29.4676565836986 12.94101784890996 33.01410713590946  28.75518277162994 11.23831482914741 34.20020624223484  27.83683013916016 10.72702026367188 39.89208984375  28.19679069519043 9.872431755065918 39.36574935913086  28.38579633476999 10.94587125992954 38.91910758719599  27.68944962656509 10.36730145790054 38.54984106702715  27.0584760527689 3.613400683700582 34.58452212067137  26.05843632995692 2.817809227333353 35.05204428579417  27.44681913934024 2.615688118924474 34.71257781522362  26.10630989074707 0.09558500349521637 38.43434143066406  26.33512875957777 0.7868814010587368 37.92543019230526  28.09148402159686 12.87829522823831 36.32186836495337  28.68231197184889 13.52655626923031 35.63116922759506  28.22480089148929 12.19915098382488 35.32481409771921  27.14704424344125 13.22460578869139 34.97360521570682  31.47934913635254 20.95421981811523 29.91850090026855  32.13589096069336 20.92571067810059 29.46285057067871  31.62850570678711 20.80660057067871 29.44246482849121  32.25195457670224 20.29975624314781 30.01418649675349  26.85506057739258 10.34403991699219 33.5671501159668  27.08847483041728 10.37967935351194 34.81120791695535  27.20565662715987 9.473621081450689 34.25953952790182  27.85459649802603 10.41643211121657 33.79645134526884  30.36918067932129 17.33448028564453 31.27371978759766  31.30680084228516 17.26750946044922 30.90336036682129  30.67079079179247 16.8544020965038 31.71031796840492  30.9187073642318 17.78661862341616 31.82153144776834  21.08602310276856 7.16111487369607 39.09187588682712  21.95555827623578 6.587588407030682 38.75014288592277  22.07880626903563 7.99937715448277 39.01498254913846  22.0695842778577 7.407200028102135 38.07927451544378  22.85635948181152 11.21975040435791 36.02085113525391  23.06517028808594 10.38533973693848 35.98772048950195  23.76922021372633 10.22767549339997 37.11184982910089  23.99542927781117 11.32517854250756 36.56465457697051  22.89797019958496 10.33263969421387 39.89208984375  23.68036079406738 10.23036003112793 39.89208984375  23.39263885729481 9.900994551020734 38.77116359588359  23.7783353915775 10.92080262828866 39.03085530551676  36.38435516037003 12.48776824308993 37.61895660205816  35.77951130855158 12.01179308897274 38.94595774241875  35.03112673284373 12.32278482091102 38.10238401895502  35.42136201247638 11.71271456181463 37.72338449067892  31.87166976928711 26.32401084899902 35.95365905761719  32.42333984375 26.30351066589355 36.89635848999023  32.74515914916992 26.33816909790039 36.19672012329102  32.37856290342822 25.15445194820811 35.92569929949089  29.94132995605469 3.457508087158203 36.40721893310547
[...]
<PointData  Scalars="c_HbCO2"> 
<DataArray  type="Float64"  Name="c_HbCO2"  format="ascii">3.8223380279009435e-27  4.1119097717804778e-27  4.1064155578466155e-27  4.0683894793713472e-27  4.0568409691727986e-27  4.1142161739385723e-27  4.0975112441831494e-27  4.0832224578274911e-27  3.8101618372866745e-27  3.7443614298864699e-27  4.3113116807096372e-27  3.7362144461067069e-27  4.1180416015267269e-27  4.5110742147674306e-27  3.8192295892620750e-27  3.9780123501388773e-27  4.0824373493126154e-27  4.2674136274085839e-27  3.7715124938196694e-27  4.3808870897870576e-27  4.1878129540651929e-27  4.0855168612475151e-27  4.0872767320926329e-27  4.0744552106348517e-27  4.0830040217729463e-27  4.0366288048372504e-27  4.0723269258844157e-27  4.0830576255390145e-27  4.0968643546960659e-27  4.0384163866372417e-27  4.0344424345809418e-27  4.0734689184300208e-27  4.0482280264667441e-27  4.0958698932457296e-27  4.4047463216482883e-27  4.0822451847313775e-27  4.0402749411922668e-27  4.2453033195281822e-27  4.0191335935693452e-27  3.9598778329065729e-27  4.0346147340994586e-27  4.0742298377219087e-27  4.0293158402894443e-27  4.0727507873410159e-27  4.0875592307900307e-27  3.9921926853057981e-27  4.0729697622070563e-27  3.8760320335153568e-27  4.1344438768768025e-27  4.1246687965667453e-27  4.4387912168919550e-27  4.0654806875736932e-27  4.0526891652528670e-27  4.1119649652297385e-27  4.0769113828419298e-27  3.9992989301519849e-27  4.4127940436537244e-27  4.0614124948673963e-27  3.9158072631937643e-27  4.1285391975135114e-27  4.2148755718702462e-27  3.9651444239502786e-27  4.5650965623716893e-27  4.0625073765233959e-27  4.0526108778152528e-27  4.0162782889282047e-27  4.1118215806005568e-27  4.0880380796102224e-27  4.0994154416627018e-27  3.9771132135646139e-27  4.0070649068991162e-27  4.0212639338477956e-27  4.1612171641723383e-27  4.0643304224905661e-27  4.2389080437366253e-27  4.0475614079117629e-27  4.0599219046832492e-27  4.1432345851914095e-27  3.8267598244733422e-27  4.1107656124987325e-27  4.0770885550983139e-27  4.1790686054867764e-27  4.1219102852890408e-27  3.9787660963967544e-27  3.9616632244181261e-27  4.0767251409249727e-27  3.9691222889532825e-27  4.1141231328063665e-27  4.1872636545036795e-27  3.7413479392256152e-27  4.1408082928119489e-27  4.1490994413283258e-27  3.5593263302323902e-27  4.2049321475037707e-27  3.8283994294052782e-27  4.0758869280914737e-27  4.1021038895983304e-27  4.0662430824075972e-27  4.0757243767620009e-27  4.0653571344234056e-27  4.0727863128504916e-27  4.0561812323954603e-27  4.1260083694643979e-27  4.3625637119924001e-27  4.1721622008858954e-27  3.9588405022046257e-27  4.0520217611580418e-27  4.1571149903064226e-27  4.0710749729971997e-27  3.9978104625598790e-27  4.0435233994008446e-27  4.0708208489292551e-27  4.0633233078209053e-27  4.0977548492238522e-27  4.0657766481206433e-27  4.0753559494785927e-27  4.0683187161479152e-27  4.0613462327168647e-27  4.1004228586584162e-27  4.1435200575385942e-27  4.1777081710797347e-27  4.0478821591202809e-27  3.8817069576284040e-27  3.8904945906864871e-27  4.2905510797146314e-27  3.9835803456312197e-27  3.5676431267917983e-27  4.1976975835654912e-27  4.1642731208017098e-27  3.7921074251088421e-27  4.2480102275663237e-27  4.0017587926061181e-27  4.0942931142707096e-27  4.3555051459222637e-27  3.8887973367187717e-27  3.8643766508640869e-27  4.1254038066863967e-27  4.0469500784804920e-27  4.0862845461946154e-27  4.0611026015291978e-27  4.1147045692306140e-27  4.0805012250993472e-27  3.9659883088371685e-27  3.9952784434317042e-27  4.0147605165102675e-27  4.0382752477420403e-27  3.3845568248261281e-27  3.7122028366487434e-27  4.8407216709620934e-27  4.2420028709360430e-27  4.0897594860332293e-27  4.2254430166723605e-27  4.2987090155313952e-27  4.1229089125918104e-27  4.5398527338316132e-27  3.9724175540808673e-27  4.1147528894257748e-27  4.2003708966189707e-27  4.0401927665796964e-27  4.4551980574784371e-27  3.9383524509070226e-27  4.0350306121264111e-27  4.0795247712207942e-27  4.1148968889606619e-27  4.0108244700233844e-27  4.1845277843629753e-27  4.0466004245237694e-27  4.0293747785918916e-27  4.0963934337962616e-27  4.1056888086610374e-27  4.0578575751343209e-27  4.0819268564389312e-27  4.0255557015816890e-27  4.2142819871256801e-27  3.3565245204681314e-27  4.1029780168555460e-27  4.9533852799897498e-27  4.2152194147040813e-27  4.0804283312757433e-27  4.0821522078080517e-27  4.0426603829344164e-27  4.0722217506854957e-27  3.8686175742282934e-27  4.0826986892837981e-27  3.7975903634187534e-27  3.7506145397545195e-27  3.8437302341067318e-27  3.8826714463040743e-27  4.3534469211415693e-27  4.2306303337007206e-27  3.9670431139689697e-27  4.0544244945867752e-27  4.0856804756907634e-27  4.4003358490514733e-27  3.9898739469714153e-27  4.0340776127187110e-27  4.1247009099901377e-27  4.1473013782764352e-27  4.0997382487577384e-27  4.0833944538329841e-27  3.9924924145135432e-27  4.0595427369644737e-27  4.0915514469700766e-27  3.8677901394674446e-27  4.1559827919374332e-27  4.0946405555673622e-27  3.6880124089146427e-27  4.0917383467758902e-27  4.3704565871740304e-27  3.9274688711372678e-27  3.9754463696895211e-27  4.1112716714762884e-27  3.9958376693672511e-27  3.8101302253276281e-27  4.3277704232272700e-27  4.3513562744120579e-27  4.3374306235069379e-27  4.0139410419396026e-27  3.8733295603916585e-27  4.0537557481580179e-27  4.0644702727223619e-27  4.0710412357744575e-27  4.0742425717391890e-27  4.0663276492395911e-27  4.0508715548940082e-27  4.0800820957238323e-27  4.0719769498483014e-27  4.7923212075400751e-27  3.8713924269744302e-27  4.2695519373155999e-27  3.8978627743728652e-27  4.0910699017080615e-27  4.0203079061171184e-27  4.1179969110037421e-27  3.9237406384631228e-27  3.9119304213412228e-27  4.0165853730167290e-27  3.9125815341727555e-27  3.9718470366721232e-27  4.1595484807572802e-27  4.5848255498336501e-27  3.4922189936664686e-27  3.3669330048838453e-27  4.6252616861555753e-27  4.0442570156314537e-27  4.0963368022321661e-27  4.1301823585558349e-27  4.0493965195664350e-27  4.0591342013920373e-27  4.1064179357202992e-27  4.0945586500765588e-27  4.0589452346757141e-27  4.0241596651175463e-27  3.8311369152366869e-27  4.2385137773082958e-27  4.1758840877847398e-27  4.1165256013069464e-27  4.0237655501291569e-27  4.0606506407560408e-27  3.9156672892080793e-27  4.0643149632397193e-27  3.9434850918121506e-27  4.0590987740145707e-27  4.1760443439971571e-27  3.9528049138746162e-27  4.0986573124250076e-27  4.0893766115156749e-27  4.0684085953117869e-27  4.0790947378653330e-27  4.0185542592420706e-27  4.2075825842168580e-27  4.1314221351794357e-27  4.0886612265680682e-27  4.1346375627957945e-27  4.0352491037733676e-27  3.9713693979798364e-27  4.2643887229504640e-27  4.1198419169490792e-27  4.0302848005412300e-27  4.0725123962117954e-27  3.3518177029103431e-27  4.1598482686149441e-27  4.1968663884989376e-27  4.2382125392716076e-27  4.0623407492507638e-27  4.3387786608867979e-27  4.0953059084511022e-27  4.2197657378464635e-27  4.1881202598995513e-27  4.0029794236975082e-27  3.8537035453731768e-27  3.9079333600465937e-27  4.1563574061827534e-27  4.1430444564698797e-27  4.0418241896494818e-27  4.1036899589503344e-27  4.0692684325436541e-27  4.0497331608213455e-27  4.1049956524095309e-27  4.0402633533848258e-27  4.3754171876018450e-27  3.7677828787070074e-27  4.0131707285403430e-27  4.0599749048399556e-27  3.9789701890113304e-27  4.1528028050417523e-27  4.1101817735715823e-27  4.2638071835733484e-27  3.6831586354542217e-27  4.0143206556848429e-27  4.1544892177336444e-27  4.5094344999042860e-27  4.1879826621682298e-27  4.1936145795670477e-27  3.8902176762844077e-27  4.0963424798928746e-27  3.8442594394930527e-27  4.1182424152601014e-27  4.0495216049495028e-27  4.3035442915414909e-27  4.1796875144477414e-27  4.0873599865296096e-27  3.8724871693930579e-27  4.0533613017037273e-27  4.0401271385193814e-27  4.8525758386493656e-27  4.2295996693538680e-27  4.1540032636505663e-27  4.1967510924766486e-27  4.0015681745853230e-27  3.9059150720153124e-27  4.0967566473318791e-27  4.0035369690011012e-27  4.0126084636376848e-27  4.0709841944668727e-27  4.1948679381266460e-27  4.1732456350722769e-27  4.0187695895131848e-27  4.0816862840379321e-27  4.2292055054397472e-27  3.9265473696978941e-27  4.0137492136360587e-27  4.1856209338007133e-27  4.0463036901554479e-27  4.1705149590779477e-27  4.1510404222881335e-27  4.1084156707660554e-27  4.0758640580548279e-27  4.2617973015513520e-27  4.0394267497971266e-27  3.9404278687426337e-27  4.3064701148047786e-27  4.1835479598006592e-27  4.0633077301186446e-27  4.0453132634402898e-27  4.1159783671893384e-27  4.1096885306416947e-27  4.0813316546743842e-27  4.1691439145886850e-27  3.9174388113719867e-27  4.2210195456540233e-27  4.3267491937070190e-27  4.1408732376286019e-27  3.9911123880640487e-27  4.0715782942029095e-27  4.0657026166781104e-27  4.0001618649618486e-27  4.5830703874688278e-27  4.1147175797368647e-27  4.0698337250660969e-27  3.8629983411288333e-27  4.3466934432652141e-27  4.3131813713481500e-27  3.4287817494859985e-27  4.3850226788301278e-27  4.1031565723691004e-27  4.0304818818516860e-27  4.0920248423582002e-27  4.1039852556721757e-27  3.9007970517458366e-27  4.4158681542960600e-27  4.2393289915594607e-27  4.0780990535313294e-27  4.0683841510392507e-27  4.0743592917135824e-27  4.0813215428295269e-27  4.0693670693692016e-27  4.0688800853958067e-27  4.1703042927576453e-27  4.0381143352623466e-27  4.1659009193014748e-27  4.0827054561207116e-27  4.1394045787864464e-27  3.8985138768891444e-27  4.1403936573664284e-27  4.1517103633616352e-27  3.7504481597298690e-27  4.2043921211697609e-27  4.0655609044943105e-27  4.1433478777410927e-27  3.9687233967892932e-27  4.1496414482962047e-27  4.1002827855308461e-27  3.9005307540331912e-27  3.9659899924126703e-27  3.9055877690099646e-27  4.2296074746399506e-27  4.0626017073550057e-27  4.0669095550914436e-27  4.0646121156642704e-27  4.0736081189081198e-27  3.9715509403140810e-27  4.0879391249656767e-27  3.7205157188055104e-27  4.2231532704341935e-27  4.0754205833219102e-27  3.9469184305286798e-27  3.9444902205334458e-27  4.4965415233506192e-27  4.0070646347753158e-27  3.9782788319528884e-27  4.0800266112527250e-27  4.0208274043650681e-27  4.1085246901149988e-27  4.0641350799641828e-27  4.0676186216908906e-27  3.8115998195259027e-27  4.1281224277598942e-27  4.0602871603726066e-27  4.0796742575623844e-27  3.8162754381230917e-27  4.0449573298886962e-27  4.3706088681974860e-27  3.9097955721264677e-27  3.8813415821187472e-27  3.8875198951197505e-27  4.1540714179532594e-27  4.1223126072792853e-27  4.0997991081336237e-27  4.0651576628404450e-27  4.0616258590963381e-27  4.2538513807664285e-27  3.7422677440031312e-27  4.1354044518966860e-27  4.1721929600064706e-27  4.0116054090205208e-27  4.1150824379065732e-27  4.1244265045912063e-27  4.0577965770246846e-27  4.0730094179852122e-27  4.0683431000412170e-27  4.0732888021374129e-27  4.0647462917388452e-27  4.0606852739933862e-27  4.0505884928699434e-27  4.0417516762473509e-27  4.0545486490993212e-27  4.0752216951535544e-27  3.9111357655887655e-27  3.5259429478152568e-27  4.0745545273834727e-27  4.0309281199992958e-27  4.0438888783612385e-27  4.1243562027111766e-27  4.2117912075032479e-27  3.9743054016104542e-27  4.1135314432321320e-27  4.0670952957674264e-27  3.9995226528000690e-27  4.0630187118413902e-27  4.0691643164817951e-27  4.3654714842149355e-27  3.6292446665680431e-27  4.1423790093749081e-27  3.9957290172755633e-27  4.1866559244944134e-27  4.2292916809651792e-27  2.8659802280124360e-27  3.6227355731241159e-27  3.8861670826888904e-27  4.2194832321909083e-27  4.1154810660459892e-27  4.0662466031268767e-27  4.5929191495289358e-27  4.9058379539660182e-27  4.2045980351432989e-27  4.1028591418610254e-27  4.0544072214042804e-27  4.2312076110143386e-27  4.0638538804277391e-27  3.9456240318474082e-27  4.0374027618169101e-27  3.8890441491550533e-27  4.0682231529959977e-27  3.9737142523544788e-27  4.1486214397105295e-27  4.0174903442259553e-27  4.0652600492355453e-27  4.1308713680983008e-27  4.0601284479767431e-27  4.1028345264578291e-27  4.0367695722842216e-27  2.9885927839138345e-27  3.9305357198762064e-27  4.0027002516218073e-27  4.0442464110001746e-27  4.0834314447340490e-27  4.0747155443937253e-27  4.0661170189476690e-27  4.0701803580006661e-27  4.0734495003141312e-27  4.1175946466874355e-27  4.0654916773363622e-27  4.0627669910322512e-27  4.1445878531813924e-27  4.1077530933930677e-27  4.0817563977271657e-27  4.0836657426974182e-27  3.9926828046582976e-27  4.0339154487810424e-27  4.0731431374308689e-27  3.7083990635141034e-27  4.0654817404621989e-27  4.0479412221889367e-27  4.0662017821956356e-27  4.1191388604942227e-27  4.0617946849759429e-27  4.0804125688450332e-27  4.0172906405456959e-27  4.4386343614690671e-27  4.0675462577306006e-27  4.0784587242138442e-27  4.0706130704164860e-27  4.0406964686498965e-27  4.6799273874355761e-27  4.1407608901498600e-27  4.2393100432678137e-27  4.0015950000472197e-27  3.9947209030980195e-27  4.0036082274476529e-27  4.0670213734627725e-27  3.6220412304625006e-27  4.5649987490706386e-27  3.7966200333522118e-27  3.8939529941205454e-27  4.3972583826473005e-27  3.7119956433049285e-27  3.9474236389699198e-27  4.1352011110387623e-27  4.0028145067561080e-27  4.0429793250541660e-27  4.0438635406994887e-27  4.0707864061841879e-27  3.8830661935356876e-27  5.0970493618894134e-27  3.8680318854109301e-27  3.9654488659840344e-27  4.3435698079415465e-27  4.2558275395872087e-27  3.9307425736544760e-27  4.0883620014334065e-27  4.0944812863501670e-27  4.0553154449825529e-27  4.0561990780695621e-27  4.1077928154090711e-27  3.9959982627402178e-27  4.3540433859129860e-27  3.9971575093213701e-27  3.9867783306987793e-27  3.9996974873757115e-27  4.4090839819921669e-27  4.3344221976618878e-27  4.0507679750528628e-27  4.0649660729006343e-27  4.0754174540385998e-27  4.0668060914567159e-27  3.7614290289721955e-27  4.0669450719979637e-27  4.2486213704158210e-27  3.9704796844232482e-27  3.8689578069783783e-27  4.2901143343606022e-27  3.4475346116981970e-27  3.8126475102304979e-27  4.1361265141898103e-27  4.1031894593723533e-27  4.3246318806391228e-27  4.0005260877332351e-27  4.7013742872690469e-27  4.1555764167215583e-27  4.2888809889420878e-27  3.9761084348206302e-27  3.6484697326124769e-27  4.3790702311157118e-27  4.1239966480529503e-27  1.4824195045352833e-27  2.1920129207313541e-27  5.5517246560793367e-27  5.9383591752321191e-27  4.1777530248560923e-27  3.9095004954399727e-27  2.7186583672047500e-27  4.0019806151099726e-27  4.1249900545359209e-27  4.1067307666615840e-27  3.9200181501147146e-27  4.1023174120864141e-27  4.1381031139404902e-27  4.0792324371199403e-27  4.0662704070495318e-27  4.1388003448470901e-27  4.0774423632725164e-27  3.9882312680629477e-27  4.1304932790320146e-27  4.0714190606115079e-27  4.1601324055237588e-27  4.0622963570272443e-27  3.4467567980100665e-27  4.1025878344159631e-27  4.4295064035665846e-27  3.7295207269258159e-27  4.1372767156696917e-27  4.2024999922399788e-27  4.1790088328280658e-27  4.0043332175266295e-27  4.1687563102763738e-27  4.0021068811358255e-27  4.1612908565976298e-27  4.1699800315016619e-27  4.0478176220894671e-27  4.0632332394930238e-27  4.2444992908712766e-27  3.9838200319960618e-27  4.0051586987735315e-27  4.2077994621635942e-27  3.7777260110064372e-27  4.1953848807472465e-27  4.0912432952262188e-27  3.9621476833575416e-27  4.1077296869162702e-27  3.8761994051795979e-27  4.0213488119705925e-27  4.0765253070796454e-27  3.9075713438351991e-27  3.8776163559623362e-27  3.9431292026123148e-27  4.1997730734693178e-27  5.5081297922327632e-27  3.8289803262979251e-27  4.0630181916163760e-27  4.1114024513257187e-27  4.0603362452791859e-27  4.0785284220972167e-27  3.8405503857525034e-27  3.9811493010172988e-27  3.9582801132033352e-27  4.7114981612900472e-27  4.0382955067083747e-27  4.0706872180850572e-27  4.0689564289365074e-27  4.0513787071104064e-27  4.0710543612999010e-27  3.9951206007434565e-27  4.3197474268465135e-27  4.1887065111295443e-27  4.2103029558352858e-27  4.0355562503465555e-27  3.7918402259914275e-27  4.0849943558956914e-27  4.0764458153031641e-27  4.2830141216190462e-27  3.9420957732476316e-27  4.4376535492367827e-27  4.6904551701141810e-27  4.2225024917301809e-27  3.6901131142224255e-27  4.1485916949930848e-27  3.7669896928987901e-27  3.9955185902259393e-27  4.0841949070224988e-27  3.9312525225170479e-27  4.2143794258793762e-27  3.7989201488928051e-27  4.1650072436805865e-27  4.0705328723815480e-27  4.1051310200977636e-27  3.6673129418760077e-27  4.2390499852728850e-27  4.1925322467575088e-27  4.0769168443733053e-27  4.0432753068101595e-27  4.0777246674054707e-27  4.0765460344421530e-27  3.9610117422638326e-27  4.6242026185457842e-27  4.1500292395302251e-27  4.1674137184235209e-27  3.9778360303497279e-27  4.1145244020355393e-27  3.9742088401177695e-27  3.8931210620353690e-27  4.1598791030564391e-27  3.4026135352430541e-27  4.1948689113684134e-27  4.1588913023592156e-27  4.0417832298390247e-27  4.0107906663056983e-27  3.9108512149971936e-27  4.0399206021747122e-27  4.0709681139501843e-27  4.4885465915668643e-27  4.1114476337501103e-27  3.8594510429802755e-27  4.2760700433109756e-27  4.0788057991427109e-27  3.8366225003118151e-27  3.8460123900147850e-27  3.6848264631829655e-27  4.7328724061814195e-27  3.8440962507654803e-27  3.9252336876410354e-27  3.1129098237699905e-27  4.0822745445904844e-27  4.1412855414191130e-27  4.0375206221187988e-27  4.0977782755413549e-27  4.0786793953391024e-27  4.0360426897770202e-27  4.0483241238448431e-27  4.2654782761540440e-27  4.0341848338473192e-27  4.1272986450210238e-27  4.1337736263814671e-27  4.0353537572064639e-27  4.2565089187459970e-27  4.1670791102121076e-27  3.7786800242648853e-27  4.0536335798791446e-27  3.5301537030348546e-27  4.3308961862146012e-27  4.2385435631226028e-27  4.1162373270675285e-27  4.0235035772100693e-27  4.0026031718466407e-27  3.9429231655824628e-27  4.2419458603646480e-27  3.9300809675417735e-27  4.1307220983865936e-27  3.1916068646966255e-27  4.0681915402873871e-27  4.0749047426605143e-27  3.9946287453811105e-27  4.3086700169711740e-27  5.4966008163127529e-27  4.0175073118566122e-27  3.6141849616624338e-27  4.1261550004137288e-27  4.0864803358339105e-27  4.1938782786415114e-27  4.0174731878286872e-27  4.2399788282793089e-27  4.2557147006727901e-27  3.9297487263212837e-27  4.0068320710301829e-27  4.0914781667819834e-27  4.0076593080539494e-27  4.0660167182933929e-27  3.8895639512132674e-27  3.9277354966785183e-27  4.0379247910626133e-27  4.1190499328541436e-27  3.9900375136011396e-27  4.0060588164407332e-27  4.0665954307406481e-27  4.1400612620412867e-27  4.0581137200502750e-27  4.0585968323300698e-27  4.0518094819545659e-27  4.0358094484200636e-27  4.1671872781971071e-27  4.1462181436068017e-27  4.0525744263244501e-27  4.2320818744095850e-27  4.0943807200202474e-27  4.0543239161210158e-27  4.0702908047839753e-27  4.0706725336024072e-27  4.0798317705926345e-27  4.0561133142160178e-27  4.0676628874014797e-27  4.0822137855317979e-27  4.0866499673735278e-27  3.9417785503713104e-27  4.0768860470783128e-27  4.1434661905930818e-27  4.1348722336724449e-27  4.1961205319913246e-27  4.1860503966872005e-27  4.1777624677503109e-27  3.8300559030724639e-27  3.9646825850608801e-27  4.0770765265543687e-27  4.0650405497447060e-27  1.9330652886852011e-27  5.1685074912448363e-27  5.1349552175493723e-27  4.0834704222993099e-27  3.9727877599339790e-27  4.0889840398651562e-27  4.1049307775445586e-27  4.0583847841011606e-27  4.0971997263522416e-27  4.1139958986262684e-27  4.0114791731518277e-27  4.3970754765928343e-27  3.9727588726179281e-27  4.0729865246296426e-27  3.9976895280650450e-27  4.0325136938983131e-27  4.1758311833423187e-27  4.1242400180433690e-27  4.1124405718977644e-27  4.0563107340659440e-27  3.8232999230952786e-27  4.6184202523125611e-27  4.0017597227258984e-27  4.1452400282707141e-27  4.0194359383560604e-27  4.9676422618218693e-27  5.12967853985