<?xml version="1.0"?>
<VTKFile type="UnstructuredGrid"  version="0.1"  >
<UnstructuredGrid>
<Piece  NumberOfPoints="5318" NumberOfCells="21862">
<Points>
<DataArray  type="Float64"  NumberOfComponents="3"  format="ascii">33.30633163452148 21.30986022949219 2.482315063476562  33.97246932983398 20.60836982727051 2.805136919021606  34.55665605447114 21.69606344716639 3.303952122716239  33.56709023005264 21.1158705144635 3.419158898785183  32.86294174194336 19.51552963256836 3.073261976242065  33.76773834228516 19.80286026000977 3.029623031616211  33.56578826904297 18.94057083129883 3.028676986694336  33.11169596217979 19.98944222727051 3.940632093918834  37.3685302734375 22.8817195892334 2.189084053039551  38.09925842285156 22.49547004699707 1.941405057907104  37.53417619439752 22.2534004478756 1.617855110764157  37.41427684055422 22.15926258686952 2.187358674528938  36.96909396594347 22.01133084875413 1.29430516362121  37.77964091526125 21.96613781575135 2.063519176962715  37.46002340767094 21.43680558450563 2.185633296018325  30.69807052612305 23.24926948547363 0.6441900134086609  31.20569038391113 23.95004081726074 0.1048400029540062  31.66411018371582 23.35832023620605 0.7113509774208069  31.22906115201452 24.40707403224135 1.222138036314864  39.89416122436523 19.95080947875977 7.427981853485107  39.5112052257134 19.48562170471667 7.446631203515128  39.89416122436523 19.59790992736816 7.148863315582275  39.89416122436523 19.63031959533691 7.544533014297485  39.89416122436523 19.30982971191406 7.661084175109863  39.5112052257134 19.13272215332507 7.167512665612296  39.5112052257134 19.16513182129382 7.563182364327506  39.89416122436523 19.27742004394531 7.265414476394653  39.89416122436523 19.24501037597656 6.869744777679443  39.12824922706156 19.02043393067358 7.465280553545149  28.33801860440941 24.43915098377149 1.700614038449218  29.89511287650388 24.21992619940635 1.238483075251617  29.48224097945836 23.13189122010324 1.972468821542309  29.11044654147979 24.17859015002179 2.667358907914216  34.87004852294922 23.99275970458984 3.689127922058105  35.21757125854492 23.91720962524414 2.856697082519531  34.80534432292267 23.124486277421 2.555614125753421  34.23331588211873 23.4225875795997 3.530246185003485  37.9563102722168 24.45449066162109 10.94330024719238  38.35604095458984 23.67276000976562 10.98674964904785  37.93266571448841 23.79186739496246 10.47433739499461  38.23667321424424 24.20168106594373 10.2364954615148  38.51703615627169 23.94887147026637 9.529690675837218  37.90902115676003 23.12924412830383 10.00537454279683  36.35868729869061 19.73597852706065 6.661378070023307  37.0293486401608 19.25847480897226 5.636638718304585  35.20365255686753 19.97853859755638 5.327278236557073  36.14631990422436 20.91001551036878 5.920605655274835  31.28591918945312 21.94305992126465 4.784409999847412  32.80094617480992 21.41398606451173 4.341968294860698  32.02189187889046 21.61174040170578 3.558259603961412  32.22615826407446 22.47011199695945 4.336369538412988  35.88731212039053 21.36388735339386 4.24674366295765  35.38957958845645 22.15729478953072 5.778235738472109  35.98478311663089 22.43086153743008 4.791710289088789  33.26342010498047 26.51556968688965 4.005504131317139  33.63182830810547 25.7545108795166 3.845300912857056  32.46904113723465 25.8772973663796 4.299280188946014  32.79766149489416 25.84333211257402 3.067414546342718  28.70745086669922 23.73998069763184 0.1048400029540062  28.5433292388916 22.62194061279297 0.1048400029540062  29.27704048156738 22.32172012329102 0.8813980221748352  28.37358321811812 23.05342941311557 1.870081996146004  34.67977142333984 20.64814949035645 2.509006977081299  34.97774887084961 20.04187965393066 2.421092987060547  35.53742295019752 20.56025007265132 2.413098944080627  35.05065295500372 20.65040541983566 3.107837133861377  37.14678955078125 23.19315910339355 6.18133020401001  36.80516965883499 21.6602022647179 6.44528676878992  36.0315683360464 22.75634354466973 5.782976574951428  37.13416500693467 22.02449200231671 5.239817177551676  33.90354919433594 24.72604942321777 0.8624420166015625  33.13739013671875 24.40846061706543 0.1048400029540062  32.87516720529058 24.08167138249371 0.8490088751221838  33.21201195691356 25.0979069057431 1.110532132399532  31.88842964172363 18.046630859375 5.963708877563477  32.12562942504883 17.2966194152832 5.832388877868652  32.18936588797141 17.98454693829282 4.533734572125915  32.68896976883601 18.48597484287322 5.883370986346971  35.26640717354617 20.31968287948363 7.192590469917072  34.44458180150199 19.24727213662528 6.738719393507544  34.34427248960922 20.16217846525508 6.829334054803018  29.62165069580078 26.01417922973633 4.585062980651855  30.11992073059082 25.37562942504883 4.829001903533936  30.24413803168024 25.30507333306334 3.648540197840473  30.85519470560805 26.04913078732638 4.499513303350759  33.59880065917969 23.53488922119141 6.475419998168945  34.05097961425781 23.18687057495117 6.770615100860596  34.49203249405728 23.60142117556698 6.182252812050818  34.34150127728302 22.86035188975547 6.256106944256388  33.78224945068359 25.63505935668945 2.59277606010437  32.98317765427922 25.5397784822014 2.023527064062082  33.4966368226723 24.60357827608845 2.3009281350712  32.84178135285268 24.88084770249013 2.802048978484359  36.87910842895508 19.12055969238281 11.82126045227051  36.98875045776367 18.90876960754395 10.9988899230957  35.66356662027621 18.19719150150942 11.5413619798609  35.98605927425967 19.66922533738691 11.71813709241398  29.66408920288086 22.11300086975098 1.535061001777649  28.42863272136852 22.20335563458377 1.348468469141856  29.11039169224728 22.1741009386947 2.325393248728374  28.83201026916504 26.71585083007812 0.1048400029540062  29.43314933776855 25.75882911682129 0.1048400029540062  29.7050895690918 26.55013084411621 0.1048400029540062  28.63381102812579 26.38531253472554 0.8494418770010378  37.07347106933594 23.64686965942383 11.49678039550781  37.48654937744141 23.86907958984375 11.11993026733398  37.55401992797852 23.14488983154297 11.02145004272461  36.64344504871455 23.08790903695323 10.33296201299704  30.41332054138184 22.40634918212891 1.917119026184082  30.11829948425293 22.7490406036377 1.109240055084229  31.21673011779785 22.86014938354492 1.404139041900635  30.70805845300704 23.28769664207438 2.110751693090485  31.16705785117664 27.58111774845829 2.119045687222297  32.34855065376176 27.49363719535875 2.259546270572376  32.13731890600584 26.70646295640404 3.23518068866495  31.50444435233334 26.37352753883963 2.296127921847472  31.77516937255859 27.91752052307129 0.1048400029540062  31.46932983398438 26.89102935791016 0.1048400029540062  32.47663879394531 26.97271919250488 0.1048400029540062  32.36974965365093 27.81126960748678 1.173994123735703  29.9626407623291 25.02652931213379 0.1048400029540062  28.94897900262965 25.12361931300955 0.7159564346011169  30.16597736682842 25.22342886617383 1.067339341191931  32.59987280248192 24.28152031829275 1.886501437841815  33.53104341735371 24.128182181893 1.471099174195462  34.69635009765625 24.06141090393066 2.031162023544312  34.97123296309121 23.08921070379188 1.514291782379525  34.21278973985949 23.47613623010577 1.439968822247072  33.6621581483472 20.5624925413222 4.638558028734123  34.44395335341665 21.53798594487795 4.894103753660342  33.24950954117136 21.28977177102624 5.640784071924646  33.14992141723633 17.85894012451172 6.874435901641846  33.77251031698987 18.45816317083834 6.169804265441943  33.06138587691193 17.32869053463794 5.44984804749249  39.11885833740234 21.86750030517578 2.556979894638062  38.75859832763672 22.13693046569824 1.962334036827087  38.54527013542395 21.4375742577913 2.388373480943775  38.95763071895709 21.64209740874184 2.068412714554834  39.24442481994629 21.85706043243408 2.152715921401978  39.36999130249023 21.84662055969238 1.748451948165894  28.99912071228027 25.4984302520752 3.420133113861084  28.42561912536621 25.36100959777832 2.846916913986206  28.70916938781738 24.640869140625 3.25425910949707  29.56387934264535 25.05244447129285 2.676416956554489  30.42925071716309 24.23707008361816 4.826751232147217  31.13427925109863 23.44370079040527 5.033167839050293  31.26566441177527 24.70690874140604 4.642596176605357  30.91667371487938 23.85331415113691 4.054662488799416  34.9390983581543 21.14270973205566 8.54263973236084  35.49647645803244 21.12325437602708 7.791505103490569  35.16019200971925 20.56004859376253 8.738077897211939  35.85920442571172 21.21889910589877 8.689403147470985  32.23773259828404 24.41266074109058 4.495861800159428  33.54536226442603 24.16968869920916 4.477688018380944  32.81504869256298 23.39657476108433 4.266416696945942  32.62469348883438 23.8260953562156 5.232570362116926  32.05960083007812 20.58251953125 5.652660846710205  31.52845001220703 20.03558921813965 5.496368885040283  32.14419937133789 19.68885040283203 6.015291213989258  32.76904290746561 19.82657595673705 5.332378625461109  39.89416122436523 21.60671043395996 6.366865158081055  38.92736959564744 21.71785970214562 6.670663510155265  39.41076541000633 21.28269980193951 6.497999267971309  39.55169610530992 21.12708871726987 6.580256458994816  39.89416122436523 21.22712516784668 6.346100091934204  39.89416122436523 20.8475399017334 6.325335025787354  39.55169610530992 20.74750345115659 6.559491392847965  39.20923098625461 20.64746700057978 6.793647759908577  37.00043869018555 20.78809928894043 11.477219581604  37.1644401550293 20.79659080505371 10.48692035675049  35.59493840374099 21.13602209027348 10.65740029266089  36.45341751724281 21.16267296149732 10.05390459589012  30.70391082763672 19.51573944091797 3.42625904083252  30.15040969848633 18.91876983642578 3.421263933181763  30.73741912841797 18.79146957397461 3.81521201133728  30.07094415247959 18.86056426068 4.239579385899914  31.65229988098145 21.69174003601074 2.775154113769531  31.40493162853962 22.57329711091459 3.934037219174173  30.94900745539863 21.6921275705931
[...]
<PointData  Scalars="c_HbCO2"> 
<DataArray  type="Float64"  Name="c_HbCO2"  format="ascii">-1.6647538803792918e-49  -2.1854072445577225e-49  3.0074990072462712e-50  2.1314514612871351e-49  -1.1908962713266107e-48  4.3474404589337250e-49  7.5371413506835184e-49  -2.2452784258310042e-48  -8.0519800195785414e-52  1.1303403124228095e-52  1.2481297386911801e-52  -2.1873596243802820e-52  8.2534844427224344e-53  3.2474732394486477e-53  -3.9893348245318794e-53  -1.3769523267789780e-47  5.7320739836327389e-48  4.3590971801621426e-48  -7.6773433341720116e-48  -4.5619917424844136e-55  6.8473162528346816e-54  -3.1635014693976663e-54  -3.9850529901960036e-54  -4.0390894461195845e-54  3.3121037942042889e-54  4.2730912959074664e-54  5.1429109915637054e-55  -1.1471522642740494e-53  -4.0005912691876400e-53  -3.7737366908293752e-46  1.1088582503563826e-47  -1.1911915188998898e-46  -4.9383736922526370e-46  2.0085888672815441e-50  -5.0908289988716209e-51  4.0549599302634799e-50  -7.1068493363501949e-50  9.4238179310758648e-52  -7.4090607410683523e-53  -1.3455836218123449e-51  -6.8306819580050341e-53  -1.6422263746672698e-53  -2.6076302382018921e-52  5.9343587753041622e-51  8.0487025822968130e-51  -4.3169923174754299e-50  8.5330136611215342e-51  -1.7581369778209589e-48  -3.8880214973502077e-49  9.8931868884668562e-48  -1.2077617858954760e-48  1.3646926359913963e-50  9.6549766603640556e-51  -1.2350554704293145e-51  -3.1283753012089606e-50  -1.1757884672120441e-49  -4.7430765203249253e-49  3.0859026636787385e-49  7.7679977058861139e-46  6.9482926220158218e-46  -2.9700470948054328e-46  6.6037825834503966e-46  1.9805034610169482e-50  1.4174320314746215e-50  -4.7247829892686219e-52  3.0426848437050874e-51  1.4571873040447674e-51  -8.6859255122826269e-52  -6.4799853641828862e-51  -2.0492516986079694e-51  9.2711867720134723e-50  -4.0705122213639232e-50  -1.9901759161513285e-49  -6.2992707236585679e-50  4.4837111275849028e-48  -3.8975265297569145e-48  4.1150250497327441e-48  7.6654542316883415e-49  -6.2314881360166168e-52  -8.3564818128413891e-51  2.6626919676870200e-50  1.6517386164425299e-48  4.4516084614884476e-48  -8.2243552370072211e-48  1.3510081334538012e-49  -1.1457255315090687e-50  -4.8267414583554734e-51  -3.4122469463484357e-51  4.2156319405584539e-51  -2.1238682457212883e-49  1.1341707316358694e-49  -6.7015476679076548e-49  1.4322967646140652e-48  4.5626768084990544e-52  1.0198280182487508e-51  -9.2865357208474335e-51  3.5553417881926260e-51  -3.2516405017180017e-46  -8.5308440549973680e-47  1.7292107463761927e-45  -1.9386479031730118e-45  -2.2369331319521196e-46  -6.0553458342885972e-47  1.6937028438549551e-45  2.2269887721794392e-50  6.1904701116399221e-51  -4.5472584552902329e-51  5.7261276712923940e-51  8.7482997640280944e-47  9.1726084004226740e-47  -7.7014087931567916e-48  -8.2611883864708488e-49  -2.7296966730424815e-48  1.3451491612334714e-48  1.5388401263390113e-48  -9.6490982355812943e-48  -1.2228483630043914e-48  -9.3196600344441093e-48  2.3433497773042748e-48  -3.9161295244013319e-49  1.0969254147472302e-46  -6.5624790103622777e-46  4.4735942815006435e-47  2.0033103621133804e-48  -1.5228247979157967e-49  2.1321245710268932e-50  -7.5413453850404647e-51  1.3087542790071812e-51  8.4962431340013347e-49  -1.0482004315419699e-49  6.1676296651310854e-49  -9.9933210434346471e-50  -2.8500505439784994e-50  -1.4854246160547492e-49  6.4529123759530900e-53  -1.1018729322708867e-53  -5.6537834263837577e-54  -4.3871176480787490e-54  -1.1883183112022047e-53  3.3651206846578075e-54  -5.5667447983043299e-47  1.0088072204233988e-45  -9.3296680136427147e-46  -8.3531041046325069e-47  9.1010971893156323e-48  -1.5321956844662059e-48  2.4619253574740463e-48  -6.9533724320978570e-48  4.8445613236902979e-52  2.6431852654311502e-51  -1.1449781627781074e-51  1.3780786934148710e-52  9.0030659948331129e-49  -2.6474410638059883e-49  9.1895905983863255e-49  -2.1226813684526000e-49  -7.4246260178754067e-48  -1.2055303671228163e-47  -1.9521356332290627e-48  -4.1310906372275174e-49  1.3964152810622183e-53  -1.2287109243570473e-52  1.6855766875092759e-53  6.4976025439483700e-54  -1.6752651210209832e-53  1.1439415815551125e-53  -3.4234031919677642e-53  7.6219555708419182e-53  1.1683169309868116e-51  9.7552643048165474e-52  -7.5387665610246024e-51  6.0429059956021009e-52  1.0455807469587488e-45  -6.9143739764290766e-45  1.0995462423928859e-45  -1.9051721336324215e-45  -2.2646498574708338e-47  1.0641051034686901e-47  -7.8342372075176767e-47  6.0835589880639738e-45  2.7055592856753773e-45  7.4032788916592992e-47  -2.2159633856280049e-46  -4.0202095216395530e-51  7.1066475637509557e-50  -1.0784452014057870e-49  1.3390101890956952e-48  -1.1590388732402716e-48  -4.7909080113644803e-49  2.5888144488793930e-49  8.2819219895377353e-50  -1.9824030686708907e-49  6.9503541546601402e-53  -1.6412157446499051e-52  -5.3233194818389852e-52  1.6260837113230954e-52  2.9622534903192899e-52  -8.0729534843476303e-52  2.0527417158949766e-54  2.8635795421859901e-53  3.1792675238050538e-54  -7.8615039880926513e-54  1.8081293108508989e-53  -9.1891863985732961e-54  -2.6365225667005757e-53  2.0508209159895265e-53  -1.3305617769913812e-52  8.0258651336949981e-49  1.2613725106313863e-50  -1.5185335513492774e-49  -1.0842199123973072e-49  -1.3088738024741659e-48  1.9672224335175971e-49  1.3315496263395625e-49  -1.2773512230278402e-50  3.2693994500092106e-54  7.7265419569359601e-54  -3.8100181195943259e-54  -2.1648972679542881e-55  -3.3046812109002490e-55  -7.7345133717726090e-55  -3.3466533238856294e-54  2.1016938651428163e-54  -1.4810433968605766e-54  1.4023891326461704e-54  -4.0757883542476809e-54  8.5367457598323533e-55  -2.0327917054125252e-54  1.6541374812142549e-53  -2.5058415113316780e-45  1.7169313578881592e-45  -8.3025840378977060e-48  -4.3531608011382694e-50  5.2023018149280613e-50  8.0783924024710687e-50  5.8979173597849017e-50  2.3665909462826711e-47  -9.4332024451898640e-47  -2.2128313687190327e-47  -9.6761895751017075e-48  1.5652235218427170e-54  -8.5996554667246416e-54  -6.8924820611094555e-54  -1.6705992037619216e-53  -1.6568966156824048e-53  5.2093359976447781e-54  1.2144172679070645e-53  4.2649747531954217e-54  -1.6323758693422754e-45  -1.5677425823332035e-45  -1.6924903400669463e-45  -1.0033368078802807e-44  -2.1602934885815631e-47  4.6188839464714361e-47  1.4828474674975332e-51  -3.9358335301340931e-52  -1.6903220494671737e-51  -1.4236342460774039e-50  3.2728316745076382e-51  -1.3671060646755360e-48  -7.7368735607433489e-49  4.7062898607675764e-49  -2.5538436069794611e-52  -5.6224993512996655e-53  5.5623988425085337e-52  7.3386514113219456e-53  1.4758617215496566e-47  -1.7590370838871593e-47  -1.2347506654220609e-50  -2.0172895499206547e-49  1.6709887480180003e-49  7.6594323130973637e-50  -5.7325019667054106e-50  -1.6853730377463235e-51  1.2816315637726464e-52  3.5043690136128555e-52  1.9915232264263050e-52  -8.9371415924660195e-54  -1.6097509848165449e-52  -2.9496776236962237e-53  -2.8822208793207749e-53  -4.3857852410577944e-53  -1.2036339665629844e-49  -2.4526296911769928e-52  3.6284490577793305e-52  -6.4954558676139395e-51  -2.7652435153609398e-51  1.6606019970616275e-51  -2.6651722655907555e-51  -1.6458201734776236e-52  7.0918602248041708e-51  -5.1082553888494750e-52  -5.8941164028971699e-51  -1.6852361009506343e-49  -9.0049408525502923e-50  1.1525480499288572e-49  -4.0417281760378670e-50  7.5968433880869970e-49  1.1904758082014979e-48  -1.3845066657496146e-48  -3.2620029109311162e-49  8.4872296693897746e-51  4.2197706225273443e-51  -8.5542723176016239e-52  -4.1164791771108480e-46  -1.3413693739587392e-50  -3.3579286862103050e-49  3.3725472368924161e-50  -4.5155481284603549e-47  1.3002732629969928e-47  4.4092883526668144e-49  3.9528676188912467e-51  5.0943729755269914e-52  1.9727807514703178e-52  1.4998546556093122e-51  3.3941053974272572e-52  -4.0747850191293042e-52  9.0279450689437980e-53  8.5861623763240161e-54  1.9313232635700132e-53  2.0328708324517673e-48  1.4750267051901602e-53  -2.9341743762550308e-53  1.4510230733629898e-52  3.9174732741617974e-47  -3.6360929591538891e-47  1.5241155262731151e-47  8.0799010874271449e-46  -7.3698784585603797e-48  4.7602607836756149e-48  -5.4830383828722697e-50  6.8301515655002583e-49  1.0228761951098032e-48  8.7434368376495889e-50  -9.1215280728950874e-50  -5.7867829957164830e-48  8.6801009480802083e-48  2.3173569693755481e-51  1.9822689734802848e-53  7.3866421975285743e-55  -1.3305641698312444e-55  -3.7608409971080289e-54  -9.6892095343252552e-55  -4.2584837662125256e-54  -2.1950766332900873e-54  1.2033706064034095e-54  -3.6160629633897055e-55  -6.3594189060491853e-54  -1.4108935541832130e-52  -1.8288527627853242e-52  6.5731307498218162e-52  9.6234715380771210e-50  4.8659688692746020e-50  -6.1186557073644268e-50  -3.4548415887491175e-51  -4.6987246916823397e-49  -7.3667161136707072e-49  -6.4982502088173337e-53  -5.4490686474727983e-54  5.3088697953632277e-53  -6.6877382065514438e-54  -6.8484976433804317e-55  -2.3231325421604364e-53  1.3480599063366121e-53  1.2231869908975124e-52  6.8058746540271183e-44  -1.3474928244386304e-44  6.2528240574119011e-53  1.0648559400309909e-51  -4.9024976432935867e-52  1.8010728493901783e-44  -1.5492144512808269e-44  1.6113367420363270e-44  1.8477324294176865e-44  -7.1030425965466896e-51  7.8724785366001215e-51  2.7016779967466495e-52  -1.9616762336702342e-48  1.1431635445684694e-53  -1.6565130820590073e-53  -9.0297828284517503e-54  3.5047808592989678e-53  -2.3199415483983733e-52  2.4000344152188854e-53  5.4078358440911409e-51  -2.4019391699725088e-51  -5.4777953995404802e-47  2.9535189664229374e-46  1.2441657333182934e-47  -9.8071058071507617e-47  4.4570656777196280e-46  -4.2665165997476082e-46  -8.8785346558203870e-46  -1.1229366184851593e-50  2.1444398832748511e-51  -2.8738750888178062e-50  -2.7377069919593677e-44  1.9909602748439511e-45  1.1260594189064800e-44  -4.7735498402153733e-54  -2.9754409341923234e-55  -4.9093090127184686e-55  -2.3670473480783772e-47  -7.0714914067862579e-54  2.3757597749119858e-55  8.0944941523403732e-54  -4.0064656065730564e-54  -1.2200627304877194e-52  -1.3928477657937639e-52  -7.7435765989718328e-53  -5.1327774238107783e-52  -2.1812810712753552e-49  -2.7283674036015113e-49  6.6783819607012874e-49  -8.0469534218926968e-50  2.5262635390305375e-48  -1.6626925855537032e-54  3.3729655027096847e-54  5.1323935281960105e-54  -2.6283977739529548e-53  -9.1631905236553452e-54  4.8473062894108533e-54  -3.7727418934966184e-54  -1.2613922443737012e-53  9.6644540481951744e-55  -1.7306307950021156e-49  -1.6735735131411087e-44  -1.1196060651263943e-47  -1.5051599539776491e-46  1.4731413951939018e-47  1.7818505471880399e-47  1.1355192231906035e-48  2.9229386037891562e-54  -4.2617445089535630e-53  7.7598693281994620e-52  -5.1548225772648454e-52  1.8818158114423613e-51  6.0084335039195614e-52  -2.1314055555589889e-52  -3.1962407136340619e-52  -2.1993438578321198e-51  2.3239803743447333e-52  -6.8834200374953130e-51  -1.0792499053311728e-51  5.6948716812303560e-51  3.8281295780537440e-52  -5.3529886690785087e-52  -1.1887035035885701e-52  -3.0334823452115462e-47  4.6954408891417914e-47  -2.0080569935548120e-45  4.7356799280222918e-46  6.7291804847326209e-53  -7.5811666613450688e-54  -2.0508094143327705e-53  1.6227999376209197e-53  7.9393826237897042e-54  -2.0283667280634757e-53  -1.0409761644941949e-49  -3.5901600731112090e-49  1.0650821685338763e-49  1.9911406152156114e-48  2.2901554707529674e-46  2.6267872458636382e-52  2.0499716022718226e-52  2.6171812521242451e-52  3.4013605487980760e-52  1.3102421104848193e-51  -1.1217667508642521e-47  1.9650736066587715e-49  -9.0126012656362325e-49  -1.6928064025046254e-51  -9.4077505376988187e-54  -7.7777774219639035e-56  8.0183569107857325e-55  -1.1553776351550847e-53  1.6416646812128305e-48  -1.7993129796922007e-46  -7.4112370194673182e-47  1.3675521420712072e-46  -1.2783141456573277e-46  2.4216345508701297e-47  -1.0057983015959925e-45  -6.8800554116816241e-46  1.1246960787621460e-45  -4.1047643530928563e-47  -8.2554129794926306e-52  5.4267395263320040e-51  3.2871309843168082e-51  -3.9697921640107238e-52  1.4767378300846299e-52  1.7420700933302204e-47  -4.9889008948618049e-48  -1.5158406314538459e-52  -1.9718340374707634e-49  1.6847647887227202e-48  -4.4707933460255272e-49  -5.5241878420161880e-50  7.4904967112057412e-53  3.1430999658842245e-53  -2.8964697056427399e-52  2.0740557098151474e-53  3.8916283347276736e-53  -2.7476159956815768e-54  -1.1490455063585979e-53  9.8904964899665874e-52  -1.1693214764913880e-51  8.1611493918763862e-54  7.3423357917490272e-55  1.1078103616050113e-54  -9.3464928774670163e-51  -3.1294871058922650e-45  -1.0540192458265622e-44  -6.3756925966778122e-48  -2.0379888238411209e-51  -2.0202894665708963e-52  1.3890529921395299e-51  7.6779263737464677e-52  5.8862504427991657e-51  6.4105837175774644e-52  3.2930901200684315e-52  -8.4967263962186448e-52  8.9454448506814032e-53  -1.8636775223710922e-52  5.2612879144162337e-52  9.6240196982655124e-54  3.2279431436541009e-53  2.3154016801420939e-53  3.1413864599592444e-48  3.8592050855338653e-46  1.0986359234561155e-45  7.0313039591042577e-49  8.5948826989243772e-49  5.4603987678008264e-50  -1.8283915076666172e-52  -2.1697334732258078e-53  5.3579661961477649e-55  7.1872495666408632e-55  4.9776131857091091e-54  -1.7146165179778194e-54  1.9055920330789887e-53  -3.8159573121958519e-54  -1.1136487755720333e-55  1.3562295603888335e-54  7.1816211792006054e-49  6.4715938639808408e-53  3.4808724416079978e-53  -5.5485954918049360e-53  2.9811745516390613e-53  7.6553625756854403e-53  7.1782713485803981e-54  -6.9505807849398792e-53  -2.4744155893746244e-54  -5.2840611609911421e-54  1.2261156411398372e-53  3.6647713729160299e-54  -1.6310193466623175e-54  -3.0095722225511596e-48  8.1744772895531391e-47  1.7645634221829600e-48  -3.3740247572353942e-48  -7.5423603508020904e-49  -2.4077051059703268e-52  -1.1952049799341309e-52  1.0421591201412050e-53  -1.8626465075289087e-54  -1.6037660824417085e-51  8.8414957535621975e-53  -4.9246466531695432e-52  -9.4394198796908669e-52  1.6283382002036627e-51  3.1353401915885776e-50  2.6369935327935222e-48  -4.3041542488588180e-49  -2.2755094668959470e-49  2.7760981981471240e-54  3.0630126472359355e-54  -7.3982935619564781e-55  1.2097746818808429e-54  5.9105789580138902e-54  -5.3649216552270099e-55  -1.4730983948919153e-54  5.2284038112329546e-55  -1.7853517927355377e-51  -6.8211345885593144e-52  3.9450120065647704e-52  -2.6831751999233937e-52  -1.5386811078680437e-54  -1.1706675837307361e-53  -1.1097979446442806e-55  4.4792970336300273e-56  6.2442041957426254e-56  3.7122104933221979e-54  1.7398956140810808e-54  5.8106835832580776e-55  -3.3255367946886513e-55  4.7660474625696300e-54  1.0962728915785787e-47  2.8123193519297113e-46  -1.1598407904389997e-46  -3.1885601085674336e-53  1.6383750481889450e-48  -1.8235195082615430e-52  9.1237271137738488e-53  -3.5540803172297157e-53  4.7267014811600544e-54  2.1880842952756401e-53  7.3137836914313436e-54  9.6948721068994490e-54  -1.9700951504168973e-53  6.0613678563784132e-54  6.7850624283851731e-54  2.1979606812923021e-52  1.8513934906330940e-46  -4.2164158818182278e-47  -4.6353612574009062e-47  -2.0395980169716467e-52  7.5970655051975641e-52  8.1047584970600969e-48  -7.2137436563552148e-54  1.4607319580301298e-53  -7.4452561567722689e-54  7.5389608271471638e-51  4.3014322032420905e-54  -1.2588089762382865e-53  -1.5167951240916585e-52  1.3999479384391219e-53  -1.4691075488898337e-53  1.2425379908274597e-52  -4.1847901345899700e-52  -2.4892873416951478e-48  -9.2452188872367289e-46  2.3826141411223923e-45  2.4081984071711320e-52  -2.5477722026274982e-46  -1.2927631569503179e-46  1.2442496920994674e-52  7.4476559326362163e-53  3.8548467488904225e-53  -4.7803340798754284e-53  5.2514382629031070e-50  -2.0941633316238157e-52  4.1108837494199312e-53  -5.0734713362603082e-53  7.0673888969064715e-54  8.2310238814548600e-53  1.5386258305421566e-53  6.7732076753043669e-53  1.5743931840662955e-47  -1.3263795307152779e-47  1.3658320770551007e-47  2.3615869922643692e-50  1.2147733549345438e-52  2.4175589736873806e-47  -6.6004159997256297e-48  -8.5695725309096988e-50  4.1651295181468403e-50  -1.5903297639090668e-46  2.4779755032964917e-47  -1.3906890623484031e-54  4.8754307369469537e-54  -7.0633870640380590e-56  -2.2097014461026036e-54  7.0856027069470228e-54  -1.3430589686632367e-54  1.9520689249475465e-54  -2.3872372139366729e-50  -4.6070984296746069e-51  -9.0339614603877208e-49  3.5620218805769284e-46  4.7090075423146465e-46  -2.3081193150413607e-46  2.0786487383724768e-54  8.0015752882917283e-54  4.1222189057478072e-54  -1.3102250670589429e-51  -3.1373063809263645e-51  1.2711449467533374e-54  1.9068582418399404e-54  2.8111076471223951e-54  1.4081684618177209e-53  3.4924378284137872e-53  7.2935481766029319e-52  6.3816777536999565e-53  -5.5630477733625334e-46  2.1399201525777032e-46  -6.1862893200141006e-53  5.4059871755199133e-54  -1.5118053518424313e-48  -3.7810606335194914e-53  7.5030091902369711e-53  -2.3000529799879593e-51  1.7978111027186168e-50  3.3671861416865590e-48  1.0214483764009947e-52  1.3258576707966612e-53  1.2805457295696143e-53  -2.2632002103669518e-52  1.6433543465366055e-53  -4.7453961655735239e-53  1.7421291336040111e-52  -1.2219843812321160e-50  -5.8889598513500273e-51  2.5031952438229342e-51  2.1018367053629394e-52  1.5205404423463189e-52  1.6999416409389189e-46  6.3896096021963459e-47  -2.3786891265540123e-44  1.5210522765868502e-51  -5.5391261415131192e-52  -8.4075726535734858e-52  -5.6014861636149950e-50  1.3222998634756794e-49  4.0183034092005952e-52  9.8725323728350372e-52  -2.9821008605481232e-52  -2.7145967991866548e-51  -6.6915003889284557e-51  1.7520887254470448e-49  2.7155901689674209e-49  5.7861476123057898e-47  -8.4058596664959069e-47  2.9229040219288694e-48  2.8519483813157715e-49  -5.8713760870676053e-53  -2.8185877490697748e-53  -4.1835924316542996e-53  3.1767204443160675e-53  -2.5205114977338806e-50  -2.1684845382933620e-50  -3.8253233087235422e-52  1.0364886033659150e-50  2.7614593652773337e-53  -8.3498531683627326e-54  -3.2904276370140048e-55  6.5030134622274911e-47  1.2725663012429676e-48  -2.4973824934079600e-48  -2.8254044201634610e-44  -1.3023154300689154e-54  -4.7585915445474794e-54  -8.5038765529657938e-55  -1.8570027030304158e-53  -5.1939704338284321e-53  1.0985537385995548e-53  6.9984325964608629e-52  -3.2085364540759277e-52  -1.5529339388455581e-52  5.9337472240923792e-53  -2.3736778310447731e-52  -6.0110792175912531e-52  1.9071368854450762e-49  5.6478337861662106e-46  1.9664660749991409e-53  -6.3102572336924877e-53  2.9838981048613412e-53  -1.3961095096592628e-52  4.3715339249961024e-53  -9.8201860251859077e-53  7.4505837233491529e-53  -7.6561484987035098e-54  4.6417451592067571e-54  2.7672906968277756e-51  7.0035490813923575e-47  -2.3880383294004006e-54  -5.8819655488018915e-52  -1.6649582675788664e-53  -5.3167632857743253e-54  8.6861755345126421e-54  -5.1200226665036971e-51  7.1772648611248146e-54  -1.5356089664653562e-53  3.2901382357354076e-54  -4.6596126708879230e-54  2.9906061924908516e-53  1.1644156784189197e-53  6.0909490708727553e-53  -1.6009858060398957e-50  4.8319976297920205e-53  -4.9601736278004081e-54  -1.0880853664052189e-46  -7.0175369296298461e-55  -1.4708060485560253e-54  3.9453067857465394e-55  2.0808401671191703e-55  3.9394183371448938e-54  -9.0881274359618558e-54  1.2308133411876878e-44  -1.1444459952856752e-45  -3.2498551633512242e-44  -1.5880673404255681e-52  4.3303166551464670e-52  5.7126816948966490e-52  -5.0781099899118604e-48  -3.1525589343976895e-53  -2.1410397168479880e-53  -3.7857507434803651e-53  3.6506065375686074e-50  3.0569110885548841e-49  5.3426105577464026e-46  -1.4652872282459064e-50  -2.5628986552047950e-52  3.0783664808248460e-53  -1.1751606201651480e-52  3.2911655127441918e-53  3.8408296095452502e-53  1.4895887519194539e-53  6.5447558718009856e-54  1.5733827781128710e-51  1.1841264704829535e-50  1.6494692615723231e-52  -4.780937583