<?xml version="1.0"?>
<VTKFile type="UnstructuredGrid"  version="0.1"  >
<UnstructuredGrid>
<Piece  NumberOfPoints="4024" NumberOfCells="15843">
<Points>
<DataArray  type="Float64"  NumberOfComponents="3"  format="ascii">1.584525942802429 39.89572906494141 22.92720031738281  1.296501994132996 38.96308135986328 23.04791069030762  1.102702021598816 39.2034797668457 22.40666961669922  2.172826438458049 39.01558168694685 22.92397749628122  3.010827779586177 38.59476783492006 22.05317707796448  1.851581237071958 38.02323505874296 21.73054797125295  1.802563059263481 39.13731176402347 21.60924889462688  2.838828091617264 38.98854103064352 21.02542859691585  2.145292997360229 39.89572906494141 22.33062934875488  1.415325999259949 39.89572906494141 21.89780044555664  2.326702117919922 39.89572906494141 21.55400085449219  1.555577993392944 39.89572906494141 20.99844932556152  2.393112897872925 39.89572906494141 20.65292930603027  3.953044891357422 39.106689453125 21.51358032226562  3.333339929580688 39.89572906494141 21.2407398223877  3.816942930221558 39.16564178466797 20.52388954162598  1.183912992477417 37.35641860961914 22.67318916320801  1.014335036277771 38.46112060546875 22.36746978759766  0.776373028755188 37.69231033325195 22.0158805847168  3.026417016983032 39.89572906494141 22.23866081237793  0.9313949942588806 39.08314895629883 21.8414306640625  3.996742963790894 36.06644821166992 22.92470932006836  3.940757989883423 36.73067855834961 22.11516952514648  3.633816957473755 36.0791015625 22.13257026672363  3.145593490723073 37.02014213486978 22.95964750746034  4.119826793670654 38.34529876708984 21.10232925415039  1.743314981460571 37.00265121459961 23.32678031921387  2.246742891630906 36.12125511192495 22.91182234573746  2.238357356601137 37.5460589068856 22.80346581520447  3.111304044723511 35.49982833862305 22.61152076721191  0.682345986366272 38.46107864379883 21.4123706817627  3.854626893997192 39.38607025146484 22.26719093322754  3.153340101242065 39.89572906494141 20.13582038879395  1.600852012634277 38.00569915771484 23.18190956115723  4.191434860229492 38.72452926635742 22.34094047546387  4.078267097473145 37.71942138671875 22.11622047424316  0.9045810103416443 39.30941009521484 21.17524909973145  2.57677698135376 39.89572906494141 23.04541015625  6.315930008713635 20.29872505255518 9.315721348030022  7.77174979742095 19.87771146066953 8.926403541802012  7.574534643473436 20.90715873568816 9.765917941163188  7.771659049062478 20.08450387210853 10.37717232036229  7.709475040435791 16.92023086547852 1.208433985710144  6.275257443847663 17.58606145137562 1.580503929689954  6.620324783656835 16.45719706094035 1.392244824496543  6.807947796891263 17.06189184446346 2.294280549240538  0.6356099843978882 26.66990089416504 16.22967910766602  0.6254609823226929 27.34366035461426 15.67945957183838  1.39422595500946 27.05286979675293 15.63212013244629  1.334259523590827 27.31755120409165 16.68835862780819  7.130919933319092 21.95130920410156 9.591677665710449  7.21765761378384 21.38179845391299 8.880501959658798  6.531946799323432 21.37941861948996 9.540081862660236  5.925182145093587 16.59335283513853 1.996827389212558  5.785522937958 16.98444788956322 1.154769427464304  1.755604982376099 27.5781192779541 18.70199012756348  2.277177095413208 27.59124946594238 17.7979793548584  2.114031076431274 26.88132095336914 18.39757919311523  1.247800560835437 26.9985560163885 17.68934217701213  7.062335014343262 17.16021919250488 0.6105520129203796  0.09939099848270416 27.69597053527832 16.43749046325684  7.217591468136762 15.86332378390937 2.320449355412788  5.431158065795898 19.50534057617188 8.2257080078125  5.135047912597656 20.40653038024902 7.67583703994751  6.629654135003547 20.5358516711255 7.916129026906521  5.833075014261865 21.14516533936432 8.414525997000135  5.112589836120605 17.5400505065918 2.260210990905762  5.492682933807373 16.86235046386719 2.585437059402466  5.227743148803711 16.75157928466797 1.81926703453064  5.507089138031006 16.2437801361084 2.494242906570435  6.2353483340635 16.41998289487541 2.819949435756182  4.953757762908936 20.18751907348633 8.559684753417969  0.09939099848270416 27.7210693359375 18.89257049560547  0.7826799750328064 27.21705055236816 19.44072914123535  0.09939099848270416 26.71468925476074 18.98044967651367  0.9142221586232973 26.75852634811117 18.62138878520507  6.19035816192627 21.98085975646973 9.501240730285645  6.592243194580078 22.16220092773438 8.825539588928223  4.835536956787109 20.9413890838623 8.414260864257812  5.058485984802246 21.35054016113281 7.739585876464844  5.091844081878662 21.6200008392334 8.525787353515625  6.429677775988259 15.93340629454353 3.538422314274552  7.828393873394894 15.97768812748239 3.810260711717323  7.533970674568762 16.90272633713456 3.07933062409419  0.09939099848270416 27.29903030395508 17.16399002075195  5.695388793945312 19.5301399230957 7.252917766571045  6.459230188176509 19.04919157074015 8.53780434676003  5.922110080718994 18.71879959106445 7.803921222686768  6.02054500579834 17.49377059936523 0.1048400029540062  5.500008432632395 18.18068450392259 0.9580799873859316  8.089752197265625 16.87285995483398 2.162849903106689  5.783895969390869 21.97598075866699 8.722469329833984  2.308657884597778 27.01983070373535 17.01896095275879  8.073859214782715 21.60954093933105 9.929676055908203  5.660479068756104 16.61421966552734 3.504250049591064  5.050581932067871 17.51980018615723 1.053241968154907  7.833676284607539 18.22517521969702 7.784883845156151  7.723250587159614 18.79300173891157 9.824844826829839  5.772692203521729 16.85594940185547 4.804627895355225  6.34606448030371 16.38569587126254 4.35530774897427  6.643693822932613 16.35672167715754 5.680766480701184  7.291405320515442 16.98502230250632 4.938210768468697  1.367465019226074 26.90043067932129 19.16311073303223  0.09939099848270416 27.1452808380127 18.14011001586914  0.793533980846405 26.46455001831055 19.40971946716309  10.48579025268555 22.94625091552734 4.000820159912109  10.30490016937256 23.51964950561523 3.562145948410034  9.884129524230957 22.48970031738281 3.57850193977356  9.78626821577277 22.91605222429515 4.03818515464065  12.57073974609375 28.62719917297363 2.218846082687378  13.0464338470996 29.82888292379902 1.799756449573098  11.69111192037056 29.81938916292621 2.294617749241475  11.89345747477133 28.91239100879213 1.791456765140742  10.9942798614502 26.92878913879395 8.511281967163086  10.47809982299805 27.64455032348633 7.877871990203857  10.40314960479736 26.74275016784668 7.793661117553711  11.02078046159205 26.59097624031946 7.546492247318595  2.079698085784912 29.11433982849121 14.00722026824951  2.2776780128479 28.21422958374023 14.51060962677002  1.4689040184021 28.30841064453125 13.97904968261719  1.884029742830035 28.52425038340512 15.04909862719077  0.09939099848270416 33.08543014526367 18.85026931762695  0.09939099848270416 32.32062149047852 18.65842056274414  0.09939099848270416 32.97573852539062 17.80257034301758  0.7163030293316546 32.96768932187619 18.95638294102881  2.869144916534424 21.08499908447266 5.50863790512085  2.123054981231689 20.98962020874023 5.170475006103516  2.882909059524536 20.69696998596191 4.709012985229492  2.207303055296281 21.62919601613692 4.901826813196545  7.188916206359863 30.76506042480469 5.222819805145264  7.777659893035889 29.99275016784668 5.345513820648193  7.504792650265146 30.20712947803369 4.364659396955315  8.580377486967556 30.41868930573037 4.721880138705373  10.7825403213501 34.82801818847656 7.84408712387085  9.86154901510456 34.65208134276433 7.897934550095395  10.32063744197706 34.6722707890168 9.029531469820105  10.79046549881938 33.72444726866576 7.839614398967566  8.036659732723265 24.16706879983867 1.981043559521276  8.803494211035677 24.37318869994986 0.8559447477404751  7.894562618081057 23.33019856643599 0.9897880012831851  9.208000893050414 23.79494165880918 1.658517146174062  0.09939099848270416 37.13388061523438 6.57960319519043  0.09939099848270416 37.93600845336914 5.65972900390625  0.09939099848270416 36.91822814941406 5.571473121643066  1.415937383373833 37.86098380640367 6.06595755775608  0.09939099848270416 32.59698104858398 12.07849979400635  0.6861051787447235 31.72097240615793 11.86806040216686  0.09939099848270416 32.38148498535156 12.565269947052  0.8849085311082648 32.21654332188223 12.73140116869665  0.09939099848270416 34.99974060058594 17.04997062683105  0.09939099848270416 35.7369384765625 16.50004959106445  0.09939099848270416 34.73429107666016 15.92496967315674  1.271196442533325 35.42800152776053 16.4254928816318  1.047256946563721 22.63452911376953 8.223189353942871  0.6368290185928345 23.37256050109863 7.687427043914795  1.510460019111633 23.1452808380127 8.004315376281738  1.132915438990452 22.95714403107026 7.163187220153409  1.354293942451477 23.30374908447266 0.6567339897155762  1.357874989509583 22.14514923095703 0.6689680218696594  1.719454050064087 22.71690940856934 0.1048400029540062  2.106662528263413 22.90385716895543 0.7704827503803966  10.49679869856398 30.79803957482003 2.030586738948849  11.09257489729236 29.60899037056327 1.055266701485262  11.84220912858164 30.89579261376704 1.692323399039189  2.650933980941772 21.70751953125 6.282981872558594  1.617012853020752 22.85619195475871 6.479778127255  1.764744854339214 22.20174014305033 5.455842519213823  2.494576109241053 23.10934937273603 5.916400134639995  1.861300283900059 31.87443785817974 6.183664714588998  1.105514392116258 32.09764214322267 7.171679794949781  0.6965367372446084 32.48828774673435 6.289116230154367  1.00962527845162 31.18569661831381 6.694663484092149  9.413594245910645 33.45790863037109 1.244981050491333  10.26113033294678 33.23138046264648 0.6228860020637512  10.58291682150799 33.65684898734504 1.766337591365498  10.34683592182732 32.67005541075551 1.375068817091772  1.315044045448303 39.29010009765625 17.26902961730957  1.792057037353516 39.32297134399414 17.05549049377441  1.86806920
[...]
<PointData  Scalars="c_HbO2"> 
<DataArray  type="Float64"  Name="c_HbO2"  format="ascii">2.2173666274710264e-17  2.2185063308002647e-17  2.2197697371442775e-17  2.2265179766643103e-17  2.1917074734100994e-17  2.2065064208687622e-17  2.2092764967693191e-17  2.2402571297479027e-17  2.2188485890507070e-17  2.2292749250762051e-17  2.2063265457828149e-17  2.2195605373368669e-17  2.2163326251243178e-17  2.1714626300937548e-17  2.2557192641733832e-17  2.2056587893074046e-17  2.2012721541634148e-17  2.1895894295800589e-17  2.2079024888006754e-17  2.2047052365913694e-17  2.2507058085303916e-17  2.1964093445713163e-17  2.2568128986528011e-17  2.1826981442190395e-17  2.2284493902798046e-17  2.2378584016218195e-17  2.2748392478083783e-17  2.1179279387802125e-17  2.1942511387413286e-17  2.2615377876758907e-17  2.2027519921687171e-17  2.2666863259620794e-17  2.2130288567579523e-17  2.2373275338452688e-17  2.2178059674656154e-17  2.2183852962169082e-17  2.1906251652450698e-17  2.2230550153141946e-17  2.2169981970977355e-17  2.2199600833411178e-17  2.2259416639392871e-17  2.2172726424453900e-17  2.2222988387951053e-17  2.2219149984508605e-17  2.2217753097486773e-17  2.2217673692418390e-17  2.1175391383323638e-17  2.2844148517247191e-17  2.3106995127718303e-17  2.1573125291641605e-17  2.2166409526363313e-17  2.2238306443251917e-17  2.2174905033218677e-17  2.2219457981460216e-17  2.2299469430226016e-17  2.2627684861203558e-17  2.2249167317154602e-17  2.1952822684485515e-17  2.1730470120924571e-17  2.2191316293985319e-17  2.0000000000000001e-17  2.2207052202159635e-17  2.2260457481648899e-17  2.2271825453543385e-17  2.2206251057180243e-17  2.2271887424661730e-17  2.2233444157520776e-17  2.2188338827953863e-17  2.2199504601199565e-17  2.2239067987421928e-17  2.2266194341100839e-17  2.2187665779720239e-17  2.0000000000000001e-17  2.2219019449125871e-17  2.0000000000000001e-17  2.0669735293215454e-17  2.2119957326076315e-17  2.2121531860920587e-17  2.1903197639787878e-17  2.2035937902234288e-17  2.1903252017813516e-17  2.2210879498401095e-17  2.2221131635539032e-17  2.2201648685440074e-17  2.0000000000000001e-17  2.2191280155800806e-17  2.2226707840337639e-17  2.2219997706391917e-17  2.2216018097307752e-17  2.2217259831088820e-17  2.2218242157531134e-17  2.2368207188308200e-17  2.2411982579912359e-17  2.2004942245564117e-17  2.2135980455455839e-17  2.2172933432504535e-17  2.2204781422090451e-17  2.2211669013267724e-17  2.2183172919389620e-17  2.2240979176726111e-17  2.2218286903734108e-17  2.2225267502242397e-17  2.2392959933221407e-17  2.0000000000000001e-17  2.2996903216275700e-17  2.2185667423004791e-17  2.2258657536344004e-17  2.2211726383621773e-17  2.2161072535194583e-17  2.2206192876238340e-17  2.2224618790399528e-17  2.2219589310509614e-17  2.2207470720485555e-17  2.2245719388074779e-17  2.2243893407340699e-17  2.2180601106847390e-17  2.2237512802976896e-17  2.2007200834771650e-17  2.1667534207234498e-17  2.2116891937149523e-17  2.2527428011371798e-17  2.0000000000000001e-17  2.0000000000000001e-17  2.0000000000000001e-17  2.1054934437424705e-17  2.2176892958372784e-17  2.2387425727746846e-17  2.2175062348160089e-17  2.2092402084300055e-17  2.2179055517241632e-17  2.2194960333681575e-17  2.2357824935548928e-17  2.2226326935366260e-17  2.2047791224794624e-17  2.2395928820094705e-17  2.2261270265871442e-17  2.2188946616121253e-17  2.2214449306265096e-17  2.2245533435499656e-17  2.2218462020685464e-17  2.2238401741921498e-17  2.0000000000000001e-17  2.0000000000000001e-17  2.0000000000000001e-17  2.1569016233978700e-17  2.0000000000000001e-17  2.3022927070749245e-17  2.0000000000000001e-17  2.1684794270384186e-17  2.0000000000000001e-17  2.0000000000000001e-17  2.0000000000000001e-17  2.0893664751969508e-17  2.2586679208237992e-17  2.1911945142150528e-17  2.2059511769736000e-17  2.2077688109268859e-17  2.2314551293555940e-17  2.2210577306910870e-17  2.2227877169471557e-17  2.2088470529758450e-17  2.2200171905139339e-17  2.2206736732602610e-17  2.2233954646861654e-17  2.2108274411192978e-17  2.1945903427383699e-17  2.2039415174949964e-17  2.2093999895371381e-17  2.1641818764045170e-17  2.1792649699663865e-17  2.0795816704835315e-17  2.0947836107002529e-17  2.2187503429618465e-17  2.2241609909510722e-17  2.2176258221569708e-17  2.2201852784352292e-17  2.2282855485401099e-17  2.2064878971352313e-17  2.1965845179697456e-17  2.1955860716777905e-17  2.0000000000000001e-17  2.0000000000000001e-17  2.0000000000000001e-17  2.0757284372763345e-17  2.1033486726677498e-17  2.2173511905012291e-17  2.2150358204702451e-17  2.2173411738722251e-17  2.2187311592180269e-17  2.2229097500442873e-17  2.2179623886653152e-17  2.2264338897997500e-17  2.2234427954801849e-17  2.2070032093739821e-17  2.2014038701302321e-17  2.2039616164337429e-17  2.2336553412467207e-17  2.2254437943949816e-17  2.2212087349503296e-17  2.2248966086956687e-17  2.2226704210247640e-17  2.2239473757602103e-17  2.1617806551588052e-17  2.2074973898614075e-17  2.1571504358391589e-17  2.2153763575550532e-17  2.2128962912040830e-17  2.1987394193064885e-17  2.2304396699593770e-17  2.2172423799039026e-17  2.2266513493032358e-17  2.2208108118875919e-17  2.2230816202678879e-17  2.1897676140102168e-17  2.1934893710172012e-17  2.1712364588319981e-17  2.2093174808875495e-17  2.2208823496110098e-17  2.2250080671387769e-17  2.2253950603745892e-17  2.2239625856399424e-17  2.2114683952086459e-17  2.2727973405422083e-17  2.2226905050853501e-17  2.2216888885946101e-17  2.2243154015823499e-17  2.2214061379919888e-17  2.2267076206892744e-17  2.2223778629108112e-17  2.2202436518728411e-17  2.2224241576814535e-17  2.2344595833516905e-17  2.2288719654304786e-17  2.1819298939685681e-17  2.2108192557835031e-17  2.1926265424654660e-17  2.2224404476850885e-17  2.2301949163070601e-17  2.2178567297458033e-17  2.2175951638817935e-17  2.2228311480445611e-17  2.2134403897571280e-17  2.2436934339213727e-17  2.2330817024642148e-17  2.2115326071169639e-17  2.2192481317100749e-17  2.2275419876321001e-17  2.1694318943865248e-17  2.0964387167878482e-17  2.1587631953571885e-17  2.1590121421916118e-17  2.2370788539358260e-17  2.2344112072654266e-17  2.2215917825786851e-17  2.2214943153052934e-17  2.2149820390004442e-17  2.2186022979838020e-17  2.2037726443835607e-17  2.1473715413455639e-17  2.1746245216158556e-17  2.3142233591082467e-17  2.1881765583660080e-17  2.2793698557202890e-17  2.2738173914063741e-17  2.2209865055508149e-17  2.2198631518932964e-17  2.2180399146992950e-17  2.2208820352781390e-17  2.2290309785444561e-17  2.2250176339902391e-17  2.2113664850948346e-17  2.2221747904855354e-17  2.2536382692815977e-17  2.2175949117252986e-17  2.1988617743762010e-17  2.2214549893387943e-17  2.2311803601019111e-17  2.2184383096211206e-17  2.2168383574559732e-17  2.2255254669025131e-17  2.2311344099983056e-17  2.2099042832768457e-17  2.2375522664698486e-17  2.2150834797260640e-17  2.2252314606374941e-17  2.2268470247996404e-17  2.2219296416382401e-17  2.2128208643921317e-17  2.1543612749120219e-17  2.3253720446629802e-17  2.2378294097632625e-17  2.2839825079870807e-17  2.2587275269613982e-17  2.2216945968147575e-17  2.2263080539286408e-17  2.0000000000000001e-17  2.0000000000000001e-17  2.0000000000000001e-17  2.1025832827563309e-17  2.2015889887134372e-17  2.2054082126533754e-17  2.2132711320766968e-17  2.2316128859197185e-17  2.2133656783125197e-17  2.2356533912499125e-17  2.2137726271004855e-17  2.2161108583866386e-17  2.2318163420723951e-17  2.2179928869370211e-17  2.2156988898267935e-17  2.2284383882910972e-17  2.1974353336517208e-17  2.2134881949593268e-17  2.2134317355961426e-17  2.2221939116016961e-17  2.2196340246298751e-17  2.2213228797020855e-17  2.2252019903234218e-17  2.2164608728560987e-17  2.2273696740534954e-17  2.1937064582970504e-17  2.2007518529300683e-17  2.1382426091405511e-17  2.0900764885726274e-17  2.0780183696957726e-17  2.0493040932720306e-17  2.2130178612911971e-17  2.2331748300492435e-17  2.2210805972593150e-17  2.2171446350196718e-17  2.2238608164715433e-17  2.2371396499309063e-17  2.1835164727074264e-17  2.2116145198286330e-17  2.2212559510834723e-17  2.2179430144608491e-17  2.2225774417788915e-17  2.2067129269967651e-17  2.1828266889047729e-17  2.2220161826035923e-17  2.2221585406290562e-17  2.2218111939267116e-17  2.2237547831189248e-17  2.2153024226475042e-17  2.2190667577207299e-17  2.1941409163665298e-17  2.2099858759898758e-17  2.2309296133559874e-17  2.2202956886584508e-17  2.2233746074516616e-17  2.2235719595220465e-17  2.2177640264070359e-17  2.2198824533736694e-17  2.2116042627301520e-17  2.2210709695517760e-17  2.2187542245353563e-17  2.2216844905268028e-17  2.2214195160703367e-17  2.2222079564173922e-17  2.2340829719123025e-17  2.2174609325315507e-17  2.2221019253566208e-17  2.2204575325766201e-17  2.2466596460867109e-17  2.1571380453724498e-17  2.2144793224590331e-17  2.2132866634075726e-17  2.1883366283296727e-17  2.2098414190505852e-17  2.1553587963782298e-17  2.2249805037111643e-17  2.2240485686428997e-17  2.2197652115141471e-17  2.2208619448436861e-17  2.2259161724742055e-17  2.2220982549976470e-17  2.2172717482118368e-17  2.2206680853614215e-17  2.2280786446733394e-17  2.2214776341454772e-17  2.2258030405926471e-17  2.2225743528160969e-17  2.2430454919341422e-17  2.2163469500014242e-17  2.2219102292857525e-17  2.2213849576467114e-17  2.2191978809892047e-17  2.2215709666775613e-17  2.2233959986113729e-17  2.2003863069997457e-17  2.2117963594739514e-17  2.2255702714114501e-17  2.2333126046482063e-17  2.2473387639216128e-17  2.1978099215713812e-17  2.2221345105897016e-17  2.2083085712076952e-17  2.2278753920928370e-17  2.2018270263806669e-17  2.2190625088548809e-17  2.2242089096490206e-17  2.2159247719629916e-17  2.1032506061261656e-17  2.1670497079641171e-17  2.0000000000000001e-17  2.0000000000000001e-17  2.0000000000000001e-17  2.1381067407541087e-17  2.2122197696793628e-17  2.2146361902827338e-17  2.2019082180343639e-17  2.2375218377659589e-17  2.1709919863066108e-17  2.0793905305369943e-17  2.1701417771191040e-17  2.2238870357140944e-17  2.2295241575584506e-17  2.2209887745042331e-17  2.2046005163739859e-17  2.2199717502242664e-17  2.1938015546752300e-17  2.2130624545271722e-17  2.1986961851938920e-17  2.2413904329061865e-17  2.2180867001332239e-17  2.2161759551085180e-17  2.2298493132043527e-17  2.2239982487166754e-17  2.1828731363413370e-17  2.2163130024585272e-17  2.2071871453107200e-17  2.2317988297310783e-17  2.2204536783211105e-17  2.2233922369789234e-17  2.2133472761826249e-17  2.2338038404231907e-17  2.1810182975855253e-17  2.1510389202172046e-17  2.2219669762332589e-17  2.2218798072964720e-17  2.2187722557059120e-17  2.2259332696267564e-17  2.2153449418867244e-17  2.2258770849733936e-17  2.2206620893130999e-17  2.2216110671647448e-17  2.2233636321763670e-17  2.2246320399711637e-17  2.2201322358867288e-17  2.2104645722355170e-17  2.2243231931155245e-17  2.2260131853556229e-17  2.2122867395862100e-17  1.9679067996072054e-17  1.9959961198045897e-17  2.2538341914072405e-17  2.2613774922268873e-17  2.2256856171368979e-17  2.2170575843808839e-17  2.2233778465156136e-17  2.2266409664849134e-17  2.2097966175853337e-17  2.2364352592861634e-17  2.2102657390345398e-17  2.1187716789862726e-17  2.1890344770912102e-17  2.1853275830966632e-17  2.0877904646644470e-17  2.1622446639174446e-17  2.2281490765373698e-17  2.2209828878929471e-17  2.2118137735317059e-17  2.0000000000000001e-17  2.1760415416880692e-17  2.0000000000000001e-17  2.1245241889498959e-17  2.2145903988483586e-17  2.2234888681450496e-17  2.2172268499739440e-17  2.2319564907955219e-17  2.2227547934715324e-17  2.2198014209189014e-17  2.2265503472464397e-17  2.2220381874910174e-17  2.0000000000000001e-17  2.0626733489579560e-17  2.0682896134782249e-17  2.0942380306542714e-17  2.2332052127022232e-17  2.2133004910324483e-17  2.1717555521558103e-17  2.1976994024185701e-17  2.1251388345045440e-17  2.2435963800692445e-17  2.2214906737543159e-17  2.2224372584825882e-17  2.2245521339351806e-17  2.2207469345247221e-17  2.2179313286078927e-17  2.2220379465545374e-17  2.2159471311249526e-17  2.2069595105304025e-17  2.2282165852432710e-17  2.2236971432498717e-17  2.2223215877632419e-17  2.1651639577090148e-17  2.0262176313768694e-17  2.1876192131553947e-17  2.2481060582983802e-17  2.1779349916520104e-17  2.1814240524211896e-17  2.1822942943029140e-17  2.1547441415231128e-17  2.0000000000000001e-17  2.2184383404225419e-17  2.2194762482140234e-17  2.2249727441551820e-17  2.2216395241656820e-17  2.2207184024867763e-17  2.2218339729189148e-17  2.2177138687584578e-17  2.2187245173933833e-17  2.2209024222283476e-17  2.2311305139102794e-17  2.2196063979253279e-17  2.2181055860731010e-17  2.2193253401035243e-17  2.2335784116571803e-17  2.2218761112145030e-17  2.2451703803853804e-17  2.2584567674541862e-17  2.2126753361836231e-17  2.1847591635311010e-17  2.2203556569242745e-17  2.2273613786749682e-17  2.2158475585585988e-17  2.2225986016667546e-17  2.2243753153020929e-17  2.2255737439379343e-17  2.2047097520003344e-17  2.2235661468688538e-17  2.2192070665334581e-17  2.2207914821157838e-17  2.2230945047534008e-17  2.2149473032592879e-17  2.1876283577784862e-17  2.1546647083431552e-17  2.2855946480076105e-17  2.2112289713668711e-17  2.2043061240866812e-17  2.1827186104014492e-17  2.2167904450951515e-17  2.2248651169148022e-17  2.2071772434262636e-17  2.1880937573765636e-17  2.1917993051660201e-17  2.1183136450965710e-17  2.2024558603810368e-17  2.2140769838741619e-17  2.2000381104044908e-17  2.2088111844378194e-17  2.2174407476202704e-17  2.2176492821784530e-17  2.2076706664636352e-17  2.2182408787607950e-17  2.2223791278426346e-17  2.2228149696648697e-17  2.2079396510665768e-17  2.2187115951842543e-17  2.2203793389858801e-17  2.2287428847838515e-17  2.2207214930619675e-17  2.2769535610303705e-17  2.2186794906354070e-17  2.2202613572770712e-17  2.2227570567549981e-17  2.2201376668635821e-17  2.1946568487813302e-17  2.2283972357445742e-17  2.2328845724710643e-17  2.2082939582005598e-17  2.2191052691775955e-17  2.2219757297263149e-17  2.2241048867085011e-17  2.2152444513854456e-17  2.2074359496873819e-17  2.2215953278774168e-17  2.2201191660837265e-17  2.2230374561013676e-17  2.1704600606384766e-17  2.2159542448879556e-17  2.1848899751870764e-17  2.2155287652902207e-17  2.2190410615342934e-17  2.1971994940466489e-17  2.2031439533095217e-17  2.2691304331653453e-17  2.1876147414809655e-17  2.2471265324509700e-17  2.2036710661210947e-17  2.2210673251906451e-17  2.2165792751429505e-17  2.2206015441510147e-17  2.2180770873259590e-17  2.2239490877190482e-17  2.2237461585984179e-17  2.2202496219170126e-17  2.2207897616889194e-17  2.2318059790914792e-17  2.2246214436145316e-17  2.2214305319310815e-17  2.2225857915835983e-17  2.2210400895029236e-17  2.2177310971024417e-17  2.2240409449108249e-17  2.2255672456643305e-17  2.2231202185269153e-17  2.2184501807851159e-17  2.2066974854944090e-17  2.2261668312736112e-17  2.2211411609534750e-17  2.2219596061683457e-17  2.0000000000000001e-17  2.0000000000000001e-17  2.0000000000000001e-17  2.2274397118069997e-17  2.1819169062488905e-17  2.0625550977467137e-17  2.1951016327192788e-17  2.1269402376423951e-17  2.1237629874981909e-17  2.0924469764973452e-17  2.1788794438515922e-17  2.1619732510133793e-17  2.1909252364828974e-17  2.0815424312870421e-17  2.2173705703285240e-17  2.2239648230869001e-17  2.2414495511926580e-17  2.0000000000000001e-17  2.0000000000000001e-17  2.0105642441348525e-17  2.0789619171909256e-17  2.2205720458740521e-17  2.2267897152611458e-17  2.2262551877849886e-17  2.2086588980083227e-17  2.2124418019945066e-17  2.2188880437843346e-17  2.2270595048840231e-17  2.2147197874406481e-17  2.2206790603828418e-17  2.0000000000000001e-17  2.0969730566994223e-17  2.0795078760528417e-17  2.2212470073675997e-17  2.2170369483034273e-17  2.2253324632671727e-17  2.2185423529556944e-17  2.2286796616131641e-17  2.2164709421354220e-17  2.2218068073814927e-17  2.2092455882302919e-17  2.2141758544975558e-17  2.2084830386407977e-17  2.2143172404816724e-17  2.2181203834711621e-17  2.2253244932744048e-17  2.2179234235597120e-17  2.2248490195022608e-17  2.2171708961832614e-17  2.2254977690799003e-17  2.2230937366648931e-17  2.1981269340912708e-17  2.2224122087836229e-17  2.2210750008707220e-17  2.2182025932497099e-17  2.2215975217426426e-17  2.2224284010016911e-17  2.2193318363732631e-17  2.2261257114754688e-17  2.2178964642216215e-17  2.1945672735630180e-17  2.2015903890708401e-17  2.1694196746425718e-17  2.1853214807385953e-17  2.2128251597461341e-17  2.2141701492449154e-17  2.0771027530109982e-17  2.0770284726972490e-17  2.0231061740609367e-17  2.1696450774642943e-17  2.1739568970668376e-17  2.1789809180654362e-17  2.2695354768555072e-17  2.0000000000000001e-17  2.1249739992318893e-17  2.1475253761741662e-17  2.0074842945388083e-17  1.9914972989385000e-17  2.1672034226342518e-17  2.0766962219409776e-17  2.0737876847699274e-17  2.2259569988385706e-17  2.2177537120643928e-17  2.2433130726061244e-17  2.2309672811531737e-17  2.2070886165231421e-17  2.2381669649287378e-17  2.2090471204422714e-17  2.2222920423240403e-17  2.2254865267322559e-17  2.2216709493446486e-17  2.2146212577237064e-17  2.2296510308206347e-17  2.2202037888445518e-17  2.2288539633150900e-17  2.2186116474682651e-17  2.2230500571411642e-17  2.2207878702005278e-17  2.2208791377811148e-17  2.2214369302375820e-17  2.2210962794010719e-17  2.2027991802374838e-17  2.1998324461197247e-17  2.1535450487356487e-17  2.1884255032076769e-17  2.2282940377174477e-17  2.2209939889343451e-17  2.2231861584343195e-17  2.2205166301528619e-17  2.1811405519319139e-17  2.1377223246261599e-17  2.1919962786392113e-17  2.1635809762683576e-17  2.2023364115155051e-17  2.1939386583311080e-17  2.2060513830539822e-17  2.1885382012506920e-17  2.0000000000000001e-17  2.0000000000000001e-17  2.0000000000000001e-17  2.0730340206462652e-17  2.1258603501274204e-17  2.2208540092486147e-17  2.2232482969831521e-17  2.2210447138371047e-17  2.2246867956812295e-17  2.2190248447177168e-17  2.2013685823204142e-17  2.2244988389581178e-17  2.2286890051726626e-17  2.0000000000000001e-17  2.0000000000000001e-17  2.1951807424922967e-17  2.1432691622959351e-17  2.2219566152405073e-17  2.2200182074112049e-17  2.0000000000000001e-17  2.1113207611344063e-17  2.0842047314023676e-17  2.0418350231318000e-17  2.2208192449090479e-17  2.2246476621468423e-17  2.2209458640761284e-17  2.2211542148264719e-17  2.2219090060500135e-17  2.2204770380065040e-17  2.2225293796497671e-17  2.2316049542351338e-17  2.1990779434276844e-17  2.2071079233198216e-17  2.2196782173610568e-17  2.2239790794054069e-17  2.2214200366426115e-17  2.2247588423206907e-17  2.2210131770002425e-17  2.2243723141719445e-17  2.2255683771478754e-17  2.2255152299095300e-17  2.2214656404940849e-17  2.2180098322990835e-17  2.2173614759955624e-17  2.2299844765511352e-17  2.2100232227952232e-17  2.2132254095647254e-17  2.2166920266449907e-17  2.2205206841290391e-17  2.2239933699869635e-17  2.2209106061844402e-17  2.2251176740144076e-17  2.2263225357724316e-17  2.2059780597653737e-17  2.1409663666793095e-17  2.1065061057434352e-17  2.1816103395533649e-17  2.1990104395788747e-17  2.1744040743081741e-17  2.1916225517427336e-17  2.0000000000000001e-17  2.0000000000000001e-17  2.2183194532530462e-17  2.2247032386532783e-17  2.2179198264499485e-17  2.2292375195641906e-17  2.2212220507512624e-17  2.2183977145740908e-17  2.2350748468727706e-17  2.2090515960417150e-17  2.2217872856695444e-17  2.2191781004590003e-17  2.2244291764346037e-17  2.2195201088056193e-17  2.2230692739350168e-17  2.2237931787894190e-17  2.2318649602895054e-17  2.2210675584345692e-17  2.2198187369772002e-17  2.2274819959513896e-17  2.2214571973208836e-17  2.2212521610147180e-17  2.2230397025169533e-17  2.2199468783388441e-17  2.2137045624936496e-17  2.2205332497661980e-17  2.2181545914056819e-17  2.2246132663851982e-17  2.2170860822990964e-17  2.2212523310298752e-17  2.2214985927260