<?xml version="1.0"?>
<VTKFile type="UnstructuredGrid"  version="0.1"  >
<UnstructuredGrid>
<Piece  NumberOfPoints="5733" NumberOfCells="22957">
<Points>
<DataArray  type="Float64"  NumberOfComponents="3"  format="ascii">25.53210067749023 20.91554069519043 3.662621021270752  24.64022121913131 20.52479818049426 3.111516921622141  25.40014418965537 19.7409081813928 3.504540786081332  25.47844600587739 20.93652764537671 2.782781689627657  26.87431907653809 20.6636905670166 3.65421199798584  26.71198081970215 20.06856918334961 3.971155881881714  27.47262954711914 20.01498985290527 4.042460918426514  27.50098789353097 19.95275240646035 2.825362778490787  25.21023941040039 20.48649978637695 4.294004917144775  25.56393051147461 19.82011032104492 4.613272190093994  24.84669286125188 19.12699579537363 4.308475955158785  24.25124931335449 16.9232292175293 3.839155912399292  23.62079219411703 17.71635839041461 3.438934459050593  24.91794444712747 17.969963950701 3.674418218386297  24.26508219196842 17.91474954301271 4.45968573537196  25.40210055016541 18.7005834953907 4.245071725913613  26.10738115021834 19.38786728368807 3.878585753574675  24.22241973876953 16.82268905639648 0.1048400029540062  24.96740913391113 16.9923095703125 0.1048400029540062  25.10088182776962 16.32859386412962 0.6982931597809763  24.43066641118309 17.26933488711345 0.7030903730699314  22.70553970336914 18.96254920959473 3.76114296913147  22.86960029602051 18.0958309173584 3.376245021820068  23.08367986406609 17.88379882902383 4.218324751064866  23.7565240844104 18.636424928622 3.840160079712152  25.78784942626953 17.10840034484863 0.1048400029540062  26.71636009216309 17.31826972961426 0.1048400029540062  26.09200087350222 16.59334048441956 1.401187053006029  25.36249413455128 17.69333778070426 0.9995273993844134  23.50580796895439 16.6007886504894 1.381349100362961  24.14055961891436 15.86831180802774 0.7475654527574324  27.41514631241733 20.926719962632 2.218434162242338  26.36919697999709 20.25769919244069 3.042712584387993  29.45257949829102 12.76799964904785 1.468587040901184  30.24287033081055 12.73651027679443 0.9212070107460022  29.61045803332827 13.5226187945875 0.8160877267749818  29.06628887530764 12.56784726220402 0.811227702122711  28.01869010925293 13.91119956970215 0.1048400029540062  28.76751126026056 13.93554049855051 1.080089475939135  27.43951359815384 13.92032025020783 1.19129260237523  28.14981070168313 13.1912812127267 1.190558193421666  24.60283088684082 20.78594017028809 4.613077163696289  24.71673011779785 21.21346092224121 3.982189893722534  25.99531936645508 17.91485977172852 0.1048400029540062  28.96211051940918 17.39859962463379 1.783393979072571  27.47498179028799 17.07161671942419 2.181772384841292  28.20321611918574 17.96343596454332 2.685608889136279  28.13351968103182 18.05416881365148 1.37033134937028  23.0262393951416 18.52874946594238 2.655386924743652  23.00149917602539 17.66802978515625 2.485580921173096  23.67821359931972 18.62548815477596 2.833465040361401  28.52393913269043 13.01714038848877 0.1048400029540062  26.08329963684082 20.30091094970703 3.974960088729858  26.57649040222168 19.36319923400879 4.312990188598633  24.71633911132812 16.45649909973145 2.963169097900391  23.99206924438477 16.30480003356934 2.676959991455078  24.64598743730896 16.57737457780584 1.642623327928124  25.02506316369179 16.99005349841033 2.368206215069146  30.09144973754883 13.61839962005615 1.43300199508667  30.42560958862305 13.62528991699219 0.9022179841995239  30.38243597066332 13.9693814344221 1.006765167265022  27.51330947875977 16.55180931091309 0.1048400029540062  27.61574935913086 15.63228034973145 0.1048400029540062  28.48584938049316 15.98626041412354 0.1048400029540062  27.83376860762075 16.66080365631252 1.135948366822659  26.13567924499512 15.31645965576172 2.071340084075928  25.56086202892799 15.64233057942715 1.301221879805763  26.57564690235424 14.62113167432735 1.101179555992562  26.91110351620133 15.81667943609017 1.182853804702555  24.63039016723633 15.60219955444336 2.254585981369019  25.37531089782715 14.98923969268799 2.031829118728638  24.82724462481579 15.03364628008298 1.086864124090253  26.24419975280762 21.09790992736816 3.367141008377075  26.98089981079102 21.50266075134277 3.153851985931396  26.22308997209591 21.2784162019722 2.290468961214058  28.00818061828613 14.87598991394043 2.023638963699341  28.96372985839844 14.39717960357666 2.028310060501099  27.96825127352693 15.09806656681669 1.055400538708676  30.56355094909668 14.1582498550415 0.7736340165138245  30.09528923034668 13.95378017425537 0.1048400029540062  24.76560974121094 13.98801040649414 1.288892984390259  24.17682075500488 14.3007698059082 0.655269980430603  24.05278717219591 14.92487767433013 1.117275804891898  24.81435012817383 20.22183990478516 4.96288013458252  23.87445948371823 19.80992426389664 3.76777612113791  23.78620069032061 20.58053458154003 4.938235566394593  26.82957077026367 23.57912063598633 2.965933084487915  26.46625271274807 23.7151547701246 1.466634776818756  26.38707400357703 22.56845611446268 2.181535477336161  27.35357276094996 23.47734553926368 2.161756008297063  29.07257080078125 16.87462997436523 1.194694042205811  28.64956092834473 17.02593040466309 0.1048400029540062  29.46138000488281 16.224609375 0.6878420114517212  26.48044967651367 19.87598991394043 0.1048400029540062  25.16401862211831 20.11064861030517 0.9435449889505493  26.74307586740657 19.79145720822484 1.425600610752474  25.73929454053961 20.86372887607358 1.081677552758436  29.08114051818848 13.87168025970459 0.1048400029540062  29.71117973327637 13.13481998443604 0.1048400029540062  28.16522957432089 19.11620970918696 1.777088324941769  27.79170843179631 18.95261155639788 0.7251062200170498  26.85724191883127 18.22442647159266 1.130135781480168  26.98884010314941 18.29817962646484 0.1048400029540062  27.9638500213623 18.36568069458008 0.1048400029540062  28.41813617927023 20.28146282840785 2.118841775948675  27.71421794475399 20.26301866988897 1.051466329691694  28.25406917370778 21.23822539620396 1.283121516818162  27.18901062011719 20.61051940917969 0.1048400029540062  27.83649063110352 20.99832916259766 0.1048400029540062  27.92489051818848 20.3713493347168 0.1048400029540062  24.09730911254883 15.20571994781494 2.042052030563354  24.30995846095904 15.81075127572639 1.508230745984913  27.44669914245605 19.79690933227539 0.1048400029540062  25.28479957580566 18.39137077331543 5.263895988464355  25.27685928344727 17.63846015930176 4.492465019226074  25.97540092468262 17.93325042724609 4.437994003295898  26.24924087524414 14.45950031280518 0.1048400029540062  25.94898986816406 13.29197978973389 0.6422790288925171  26.93462944030762 13.65713024139404 0.1048400029540062  24.93025970458984 16.08307075500488 0.1048400029540062  25.36709976196289 15.15876007080078 0.1048400029540062  28.20903015136719 16.77741050720215 2.84505295753479  28.30839920043945 15.92010974884033 2.116293907165527  28.75000953674316 16.71175956726074 2.03485107421875  22.31538009643555 18.29113960266113 4.194077968597412  23.11439602644595 18.55641017663681 4.760988062585535  23.45924309005772 21.05776126888179 3.085264706037115  23.71204700902584 20.8307861066118 3.880954492854891  24.31056891606134 17.77401379621242 2.883459512456558  24.80171401247263 19.00376364398918 3.087871230999264  23.74287033081055 21.91950035095215 0.1048400029540062  23.86343002319336 21.11713027954102 0.1048400029540062  24.24159240375844 22.17816250432941 0.9708605766927259  23.52601385749329 21.29193245429365 1.152527426721781  27.20523067234524 18.5523522738769 2.431070879800902  26.90821971929372 17.96014701607408 3.181765734581906  27.02240586914218 19.13743403586577 3.488851090709712  27.98250466297939 18.31357601577654 3.617222948526095  27.4468415714245 22.02844490512469 1.971012098759148  26.02940409569038 22.09384560462804 0.9527963886153199  28.44001007080078 18.82366943359375 0.1048400029540062  28.62634086608887 18.06648063659668 0.6365789771080017  24.64440813453371 21.341354363786 1.404409222439662  25.43204913466433 21.82694046133012 2.040560178752326  24.45220294166002 22.55119398972017 2.362110832589655  25.25080461672044 21.75039128046954 2.591415775071686  28.48439025878906 13.78028011322021 2.031091928482056  29.36384010314941 13.66094970703125 1.879019975662231  28.82074928283691 13.06581020355225 1.89093804359436  22.39909821655769 17.92021307069677 5.003935663339652  23.26860541374737 17.41431485040103 5.041101732048283  27.01055908203125 18.26531028747559 4.307395935058594  28.23689079284668 18.08246994018555 4.320349216461182  27.42716026306152 17.55554962158203 3.974586009979248  24.18782997131348 21.297119140625 4.599335193634033  23.26022359056116 21.54308557283478 4.419413018641663  25.54183147102888 18.27299156005724 2.352944149645082  24.13986923579026 19.01876072858251 1.503832765418269  25.71717394598581 19.0049689820862 0.9070343545477592  26.17366981506348 18.57007026672363 4.711475849151611  26.00798925253133 18.39822474423426 3.568385246306509  29.02956008911133 15.21368980407715 1.935387015342712  29.68156051635742 14.46317958831787 1.826599955558777  29.33852142623231 15.03236983300707 0.9291381805005324  27.29796981811523 14.61410999298096 2.000087022781372  27.02879905700684 15.06214046478271 0.1048400029540062  27.07621955871582 13.47078990936279 2.021857976913452  26.7967700958252 12.83775997161865 1.943287014961243  27.84108924865723 12.9109001159668 1.986919045448303  27.10946267178083 13.0483732763244 1.239076341846664  23.12031936645508 17.27710914611816 3.075532913208008  23.17334938049316 16.66971015930176 2.454080104827881  23.83094738926589 17.10653008726506 2.549667387690952  28.29681968688965 18.82641983032227 4.690040111541748  28.44822634088316 19.31108313473913 3.25280425074911  29.22728207857789 18.70225320024703 3.97106635016597  22.29488945007324 21.24761962890625 2.77382493019104  22.55887031555176 20.43898010253906 3.10221099853515
[...]
<PointData  Scalars="c_HbO2"> 
<DataArray  type="Float64"  Name="c_HbO2"  format="ascii">2.2303185640701626e-17  2.2288634442009460e-17  2.2324586703852015e-17  2.2324444349527320e-17  2.2255857188403000e-17  2.2224832561684762e-17  2.2261330663499794e-17  2.2284966368564902e-17  2.2237654229969071e-17  2.2244146203411753e-17  2.2378324946002026e-17  2.2230557687667804e-17  2.2357844392272684e-17  2.2306420469181507e-17  2.2303730298796371e-17  2.2422417442357704e-17  2.2247416492990040e-17  2.2257076083752155e-17  2.2278737556459087e-17  2.2299282687760161e-17  2.2289399383382949e-17  2.2252644128943282e-17  2.2244170592092824e-17  2.2191022722999210e-17  2.2306884982160461e-17  2.2273527008429039e-17  2.2247854219951508e-17  2.2292228488799945e-17  2.2289971774213772e-17  2.2330473296211017e-17  2.2301787286138035e-17  2.2302594563818478e-17  2.2316116922618634e-17  2.2313670399018629e-17  2.2245433984035168e-17  2.2224616485775531e-17  2.2271058507202708e-17  2.2238262465764482e-17  2.2306561539123351e-17  2.2276885146529562e-17  2.2302959336369192e-17  2.2300968729343401e-17  2.2264311666501863e-17  2.2259980332892711e-17  2.2321690660924349e-17  2.2268101741921904e-17  2.2218163306964873e-17  2.2306937082214956e-17  2.2313424966787103e-17  2.2208908955381117e-17  2.2318680932526973e-17  2.2246296377160726e-17  2.2290193847769029e-17  2.2373903537136584e-17  2.2219989027615020e-17  2.2227012945323442e-17  2.2318359208435642e-17  2.2268567346747886e-17  2.2201135606963482e-17  2.2361152012233445e-17  2.2446633484844817e-17  2.2217513480320715e-17  2.2250904291745400e-17  2.2261047071051031e-17  2.2274226221271861e-17  2.2299213341993987e-17  2.2285017096911587e-17  2.2285217536725483e-17  2.2276514991035598e-17  2.2246652042916901e-17  2.2239911719799542e-17  2.2396689512472065e-17  2.2209710153063006e-17  2.2256148370026333e-17  2.2315455825885811e-17  2.2214127399731882e-17  2.2240242732467807e-17  2.2282283769234186e-17  2.2275626547796104e-17  2.2207395367930336e-17  2.2096684702213667e-17  2.2310486445232789e-17  2.2249964424429788e-17  2.2185941504103080e-17  2.2318091125897188e-17  2.2323002387698701e-17  2.2291302292573253e-17  2.2274658566963438e-17  2.2301653606648419e-17  2.2294969102038275e-17  2.2198715971879941e-17  2.2288702872101021e-17  2.2279226600665043e-17  2.2246345051771298e-17  2.2311706034806831e-17  2.2302569053963517e-17  2.2322956217704323e-17  2.2222556557090993e-17  2.2330726103720646e-17  2.2305899361425726e-17  2.2271362951672983e-17  2.2299787720990950e-17  2.2253050922163154e-17  2.2241988670686900e-17  2.2335167256784677e-17  2.2309178174267731e-17  2.2342414814008775e-17  2.2286867214324079e-17  2.2305752317708598e-17  2.2210808868445718e-17  2.2341072435090473e-17  2.2296892868890303e-17  2.2284188484515869e-17  2.2243561203003086e-17  2.2221566314524310e-17  2.2194982648074085e-17  2.2238412729937270e-17  2.2263070593140831e-17  2.2204687537629897e-17  2.2204938398628143e-17  2.2221607019849096e-17  2.2317105064836714e-17  2.2257262689233658e-17  2.2242228769679391e-17  2.2234741161772274e-17  2.2363846656294584e-17  2.2305007246339398e-17  2.2311147552310349e-17  2.2336759889170895e-17  2.2296873375260960e-17  2.2267045553915264e-17  2.2219116491467204e-17  2.2291816383862818e-17  2.2382447458472072e-17  2.2284598901888086e-17  2.2336941664771255e-17  2.2276138183711670e-17  2.2325005480609377e-17  2.2293532758469092e-17  2.2316985566509556e-17  2.2249069351240627e-17  2.2326464847699049e-17  2.2306170767054850e-17  2.2287746014195855e-17  2.2320504772632202e-17  2.2384414330733351e-17  2.2242353449033396e-17  2.2234055733893672e-17  2.2232322247802636e-17  2.2450474529068002e-17  2.2302371301387997e-17  2.2219188844702140e-17  2.2333731752439372e-17  2.2133686498104484e-17  2.2268563758854907e-17  2.2323333854284511e-17  2.2307417290338486e-17  2.2305464830085230e-17  2.2297202624280319e-17  2.2266526669965750e-17  2.2296735130641026e-17  2.2215895656652504e-17  2.2263332233317782e-17  2.2288238551898329e-17  2.2295336624967364e-17  2.2250092891859339e-17  2.2300718037930097e-17  2.2172987734613753e-17  2.2250218158173689e-17  2.2320797629531691e-17  2.2126096459768014e-17  2.2140517472762765e-17  2.2390679644771740e-17  2.2122943532363059e-17  2.2296318408815989e-17  2.2257541443754450e-17  2.2265315420113559e-17  2.2346854333652335e-17  2.2296033183776032e-17  2.2306293085349565e-17  2.2299766673551708e-17  2.2302585187179791e-17  2.2336000854357329e-17  2.2355537551278101e-17  2.2394132254035481e-17  2.2125942481061273e-17  2.2193387402864679e-17  2.2234134104466868e-17  2.2206615134944374e-17  2.2324620053046707e-17  2.2317928494485985e-17  2.2302127780756409e-17  2.2223876637999688e-17  2.2225128142594358e-17  2.2294663213121756e-17  2.2300452416131410e-17  2.2255132489747577e-17  2.2326004939557640e-17  2.2167967582870563e-17  2.2363025085099352e-17  2.2277279128205545e-17  2.2253375315681532e-17  2.2215873371230323e-17  2.2249789442324880e-17  2.2237164916378674e-17  2.2265665800647150e-17  2.2284318296183951e-17  2.2285262730127388e-17  2.2267175385559853e-17  2.2261743429382280e-17  2.2279927928867186e-17  2.2163396277030896e-17  2.2237183187342609e-17  2.2294231154336062e-17  2.2334012320137405e-17  2.2291138696613797e-17  2.2257218350154648e-17  2.2238817656021328e-17  2.2306910143842091e-17  2.2223367761256441e-17  2.2229761249638787e-17  2.2301014892418378e-17  2.2278565038373101e-17  2.2286686083222287e-17  2.2276253411186461e-17  2.2326131469375304e-17  2.2305679193492908e-17  2.2299466486795457e-17  2.2260591708100872e-17  2.2270473583930476e-17  2.2258471539544315e-17  2.2240887955414173e-17  2.2243274734699789e-17  2.2307825040292438e-17  2.2260376838368680e-17  2.2225955355672102e-17  2.2307227758799082e-17  2.2259211188812562e-17  2.2274820417813736e-17  2.2296888291377892e-17  2.2277252634616020e-17  2.2341272137315719e-17  2.2106731090174239e-17  2.2321333409327082e-17  2.2279166822815730e-17  2.2245739786390470e-17  2.2292081909963913e-17  2.2184658130770404e-17  2.2261187759508828e-17  2.2283118969433513e-17  2.2267681313737620e-17  2.2212946076217207e-17  2.2222296151870754e-17  2.2230253644266338e-17  2.2241114620243018e-17  2.2254407711300501e-17  2.2269956662359691e-17  2.2240229809693963e-17  2.2366550816465711e-17  2.2242474794168018e-17  2.2243830917080819e-17  2.2203440283376749e-17  2.2426917170827057e-17  2.2382781555967398e-17  2.2234605628692364e-17  2.2253658564201411e-17  2.2302754067472982e-17  2.2304817768269600e-17  2.2276659942144342e-17  2.2232302138350186e-17  2.2239891291386641e-17  2.2272892775957254e-17  2.2274905295138115e-17  2.2283080826355173e-17  2.2236818484734037e-17  2.2279875677020766e-17  2.2335104439914248e-17  2.2274731365852061e-17  2.2260806998927820e-17  2.2270064032821534e-17  2.2286669626617869e-17  2.2299750678090590e-17  2.2264909326268013e-17  2.2240283882785024e-17  2.2172941024460133e-17  2.2227036502543681e-17  2.2263827201400600e-17  2.2272804083432544e-17  2.2231339433154181e-17  2.2260279788821124e-17  2.2275396092894565e-17  2.2204499364846336e-17  2.2266329312389750e-17  2.2263276629385481e-17  2.2247226791431439e-17  2.2210296340552413e-17  2.2247432038551322e-17  2.2253428984326306e-17  2.2211734033358409e-17  2.2316277716938832e-17  2.2283772248088561e-17  2.2362473442331335e-17  2.2353715527424909e-17  2.2280563479885822e-17  2.2428516958823461e-17  2.2267091192974810e-17  2.2227948495696132e-17  2.2264136571613625e-17  2.2241676255139520e-17  2.2269020384262384e-17  2.2168666455849486e-17  2.2281147122368533e-17  2.2253666741827331e-17  2.2226532321256391e-17  2.2300066298320788e-17  2.2263479990012071e-17  2.2249218013769851e-17  2.2270359876023029e-17  2.2241084102404715e-17  2.2237666672938456e-17  2.2237468140090066e-17  2.2272216324773063e-17  2.2247052889801677e-17  2.2460693163391217e-17  2.2257496585821574e-17  2.2283083356595391e-17  2.2282498023135764e-17  2.2251909999129778e-17  2.2166382466898669e-17  2.2352301094205343e-17  2.2283513643669920e-17  2.2280675922456891e-17  2.2255005976265595e-17  2.2228017682818677e-17  2.2238401313548946e-17  2.2220357272692769e-17  2.2350254300509507e-17  2.2254205621220073e-17  2.2265919256721820e-17  2.2264424079473956e-17  2.2297302659140262e-17  2.2241968755751926e-17  2.2209040426640323e-17  2.2325248125491438e-17  2.2218280964152641e-17  2.2247876164767978e-17  2.2271056439366098e-17  2.2305286958579203e-17  2.2520747755777556e-17  2.2274443715215660e-17  2.2303097414856280e-17  2.2300367836262236e-17  2.2044486359642103e-17  2.2481476682615379e-17  2.2438466218349455e-17  2.2231644151632654e-17  2.2285244049165123e-17  2.2299748382239199e-17  2.2214308070501864e-17  2.2299272616164916e-17  2.2260487772478891e-17  2.2234245207379095e-17  2.2328818372611840e-17  2.2269591796666733e-17  2.2427969220663632e-17  2.2314771140856012e-17  2.2290578697769074e-17  2.2350467036658447e-17  2.2246268378491569e-17  2.2448191879767957e-17  2.2276834613722636e-17  2.2319254803516421e-17  2.2146732965100544e-17  2.2230840185895346e-17  2.2246190026480917e-17  2.2297946011100192e-17  2.2289294050714121e-17  2.2268393747002423e-17  2.2258714167590679e-17  2.2227520594536786e-17  2.2217467064653943e-17  2.2384721433723514e-17  2.2238813420729726e-17  2.2303900599896465e-17  2.2306812868553048e-17  2.2279159252023634e-17  2.2181366039725885e-17  2.2240164077429082e-17  2.2242416409162984e-17  2.2298949002603660e-17  2.2300535296554667e-17  2.2311764903525191e-17  2.2286612908284623e-17  2.2323120884673354e-17  2.2333976566841847e-17  2.2317533776159504e-17  2.2351056445377152e-17  2.2290341332656930e-17  2.2334417822123875e-17  2.2304579227861718e-17  2.2351647657160029e-17  2.2232750410533791e-17  2.2245815156890792e-17  2.2315202361039766e-17  2.2343114722826322e-17  2.2284350713413830e-17  2.2312165010570758e-17  2.2321293262981134e-17  2.2307748172185833e-17  2.2283461196390792e-17  2.2235483975384144e-17  2.2303848901851007e-17  2.2316168185233907e-17  2.2300584900608718e-17  2.2285506989737038e-17  2.2319353835765738e-17  2.2306208439951217e-17  2.2322557591346802e-17  2.2339096237219587e-17  2.2159667935528590e-17  2.2296152153594129e-17  2.2182029651055460e-17  2.2361892306467114e-17  2.2281260222915492e-17  2.2333042810799294e-17  2.2352332810787239e-17  2.2320769765068932e-17  2.2339129995919650e-17  2.2199478602487285e-17  2.2399034250597907e-17  2.2232521318463184e-17  2.2329714501414664e-17  2.2520695888634866e-17  2.2314700182088988e-17  2.2260257824621122e-17  2.2306386956525807e-17  2.2305837158724406e-17  2.2318221534587767e-17  2.2327810759257529e-17  2.2361238873520189e-17  2.2233827235253606e-17  2.2170138003487322e-17  2.2234508405912236e-17  2.2386197133663472e-17  2.2310376425682648e-17  2.2281562742650263e-17  2.2313291721354851e-17  2.2310624997857072e-17  2.2417018146583706e-17  2.2321891888203340e-17  2.2261822725636651e-17  2.2236760836680876e-17  2.2315374343961965e-17  2.2288308517408723e-17  2.2288100519746580e-17  2.2317652207065740e-17  2.2330297732162873e-17  2.2249526102530130e-17  2.2306955107341094e-17  2.2309900975022525e-17  2.2278207890405023e-17  2.2314152958370104e-17  2.2350937273572779e-17  2.2197919186646225e-17  2.2432522801774484e-17  2.2361531881151845e-17  2.2273228208552857e-17  2.2245190329100365e-17  2.2294072047177328e-17  2.2327679895266065e-17  2.2333742365494056e-17  2.2212842117112688e-17  2.2265986901165207e-17  2.2325993066070757e-17  2.2230372668343586e-17  2.2273926958046865e-17  2.2319160109328342e-17  2.2318427826933888e-17  2.2310609152178657e-17  2.2353399173133348e-17  2.2366843477204505e-17  2.2263195158592339e-17  2.2233429657842012e-17  2.2347459909966729e-17  2.2344374141462935e-17  2.2181776549337235e-17  2.2319951870837958e-17  2.2293001481406066e-17  2.2332648578144518e-17  2.2124654757492192e-17  2.2241525300399248e-17  2.2239745558666768e-17  2.2342072651691323e-17  2.2255905153429608e-17  2.2276938948637497e-17  2.2336445359986097e-17  2.2251643178269612e-17  2.2283169463106014e-17  2.2138670126494641e-17  2.2203828394711448e-17  2.2233882747058358e-17  2.2212492388647978e-17  2.2299300081616513e-17  2.2273687864119031e-17  2.2276981241467122e-17  2.2281139742282063e-17  2.2301800255010051e-17  2.2297717502864953e-17  2.2249640660474265e-17  2.2257410149915029e-17  2.2362049539297246e-17  2.2284953312737448e-17  2.2277881096851907e-17  2.2254791472508136e-17  2.2356396936390188e-17  2.2129447404664313e-17  2.2354186583248808e-17  2.2310832123002394e-17  2.2277974235640516e-17  2.2305716546001116e-17  2.2326973883106423e-17  2.2304322330698017e-17  2.2373650637715285e-17  2.2216202279158947e-17  2.2273048129811792e-17  2.2219963741277769e-17  2.2238825606547358e-17  2.2290974286247187e-17  2.2369151040013657e-17  2.2273440018215365e-17  2.2237733282527684e-17  2.2294826929304449e-17  2.2374304741272930e-17  2.2323572716598931e-17  2.2361747171090594e-17  2.2261849843507918e-17  2.2309833977767687e-17  2.2009680182119265e-17  2.2259706250058567e-17  2.2476793055716136e-17  2.2289947751331865e-17  2.2328865127621712e-17  2.2211588549219639e-17  2.2250555827316037e-17  2.2276032472549910e-17  2.2389768900370216e-17  2.2349241597441515e-17  2.2252288292083478e-17  2.2222703204997325e-17  2.2322411024568333e-17  2.2316851363955298e-17  2.2271929059177019e-17  2.2326020846872873e-17  2.2332614767289470e-17  2.2283590499013338e-17  2.2327964743562296e-17  2.2276894692463605e-17  2.2284293247645886e-17  2.2426207865212959e-17  2.2344221813714087e-17  2.2332002074274869e-17  2.2255245739440467e-17  2.2275753471805658e-17  2.2225400120609420e-17  2.2317735256884554e-17  2.2277827093963414e-17  2.2302390298218962e-17  2.2278795125160005e-17  2.2378241608019143e-17  2.2279779609564827e-17  2.2317339900437279e-17  2.2262412227446419e-17  2.2251294748532050e-17  2.2235852734367657e-17  2.2223428173672764e-17  2.2232245597305866e-17  2.2272628515024030e-17  2.2330143478032548e-17  2.2312142470382395e-17  2.2271379925554029e-17  2.2255188382385512e-17  2.2450580220666071e-17  2.2297189698503599e-17  2.2380340732878541e-17  2.2256197079608693e-17  2.2300916844611061e-17  2.2233868149484618e-17  2.2265039549744935e-17  2.2217844201346012e-17  2.2202714738268626e-17  2.2220177573381033e-17  2.2246212489335364e-17  2.2306872301477895e-17  2.2314625817640306e-17  2.2265676917901009e-17  2.2334550420517449e-17  2.2279415406078972e-17  2.2353365413020071e-17  2.2261854876547030e-17  2.2292367426270829e-17  2.2473330340971607e-17  2.2297996292976406e-17  2.2316890776833211e-17  2.2199220479431180e-17  2.2165569992435626e-17  2.2261490588119092e-17  2.2280632925368470e-17  2.2248422861188586e-17  2.2323099333817222e-17  2.2312012477250355e-17  2.1921818329218505e-17  2.2329464361894113e-17  2.2326682011423544e-17  2.2295452437071360e-17  2.2228353701468307e-17  2.2136932855562279e-17  2.2252927194758834e-17  2.2236748718791358e-17  2.2236830392733119e-17  2.2236113004296182e-17  2.2296006455052101e-17  2.2405028455328431e-17  2.2301013273398910e-17  2.2301255390587392e-17  2.2352446365013811e-17  2.2291997457977954e-17  2.2312112220028896e-17  2.2387300451012346e-17  2.2260680064205125e-17  2.2313455897463453e-17  2.2187962737946414e-17  2.3007792164455093e-17  2.2257282492761886e-17  2.2207182983292561e-17  2.2200940020403067e-17  2.2235547343057965e-17  2.2260639779303918e-17  2.2175201522735228e-17  2.2266369204031596e-17  2.2340398887302879e-17  2.1853186944748606e-17  2.2237204381938451e-17  2.2193725591568991e-17  2.2288845330128526e-17  2.2265664320005105e-17  2.2268327770659337e-17  2.2317122201897209e-17  2.2239718998141387e-17  2.2153846080186462e-17  2.2223945612993382e-17  2.2380571111697290e-17  2.2035097279410327e-17  2.2334809975874363e-17  2.2267749993692660e-17  2.2347087662623241e-17  2.2357161651067978e-17  2.2198556185820773e-17  2.2321685129715163e-17  2.2291889358262405e-17  2.2335195256900568e-17  2.2214118867192537e-17  2.2326920789989254e-17  2.2255723823958862e-17  2.2306761036077143e-17  2.2242012975943330e-17  2.2312933580653603e-17  2.2272415508634045e-17  2.2288893175894387e-17  2.2078706198094547e-17  2.2386160229496367e-17  2.2347268816774836e-17  2.2192601092855832e-17  2.2263728907899327e-17  2.2352879029269581e-17  2.2301618731955320e-17  2.1949512600700584e-17  2.2346785550962124e-17  2.2328992398467510e-17  2.2216875989745480e-17  2.2298623831474699e-17  2.2454508544036558e-17  2.2274337928780989e-17  2.2304369142425315e-17  2.2313029347027854e-17  2.2256256548166958e-17  2.2159515071931884e-17  2.2260233231390667e-17  2.2331676454390201e-17  2.2328498880234735e-17  2.2261756946403709e-17  2.2416243644160262e-17  2.2242861778487051e-17  2.2255785994817294e-17  2.2318129576719686e-17  2.2325837608539296e-17  2.2215337337994775e-17  2.2334953389077378e-17  2.2384889844194111e-17  2.2219974174766723e-17  2.2181917151940431e-17  2.2299940797388697e-17  2.2254608233247096e-17  2.2240760238829562e-17  2.2352251553173483e-17  2.2283178020102222e-17  2.2222841796397767e-17  2.2222058643322829e-17  2.2310413057076594e-17  2.2395662091513136e-17  2.2304126591023666e-17  2.2213896392509558e-17  2.2312826474352000e-17  2.2311348397251216e-17  2.2405385709711174e-17  2.2257153252247706e-17  2.2305969738617537e-17  2.2256061335730797e-17  2.2409640585452462e-17  2.2266947916512673e-17  2.2419952784259478e-17  2.2292460085823936e-17  2.2298104941681411e-17  2.2269402353808407e-17  2.2193909242479776e-17  2.2314916199697996e-17  2.2271439658798093e-17  2.1868858005876155e-17  2.2196516451584037e-17  2.2235114243153301e-17  2.2227408415303248e-17  2.2241780569846622e-17  2.2309174307162399e-17  2.2329395166938962e-17  2.2309173465173028e-17  2.2288575855800485e-17  2.2282869362120841e-17  2.2227816618989110e-17  2.2323958287756704e-17  2.2231963461600000e-17  2.2257303898659206e-17  2.2399171312031260e-17  2.2322175862393257e-17  2.2143829356510014e-17  2.2450155739896111e-17  2.2343395147987710e-17  2.2309666684258722e-17  2.2155703892840698e-17  2.2401725616686705e-17  2.2350970405942272e-17  2.2288091828461270e-17  2.2315259863243787e-17  2.2303298207437639e-17  2.2347453963429641e-17  2.2243747154237805e-17  2.2279831727485212e-17  2.2292434556487814e-17  2.2319291634247478e-17  2.2209528475029441e-17  2.2251129502005322e-17  2.2295983304622663e-17  2.2348115919500843e-17  2.2351633097290654e-17  2.2305225590219507e-17  2.2383791894003198e-17  2.2351381943308430e-17  2.2295123685019613e-17  2.2298610425516195e-17  2.2303952095671953e-17  2.2335277860734665e-17  2.2226976767406261e-17  2.2288904623047732e-17  2.2300651552920440e-17  2.2315781263519430e-17  2.2285208713257793e-17  2.2346822672768825e-17  2.2340359581231265e-17  2.2325556260740421e-17  2.2177161253850991e-17  2.2689746194063415e-17  2.2300418145516117e-17  2.2312903062423547e-17  2.2335924360266473e-17  2.2336378420454178e-17  2.2370207727550999e-17  2.2350050801998689e-17  2.2274718064901905e-17  2.2280015431491396e-17  2.2396529090598132e-17  2.2358924035050547e-17  2.2224467376217823e-17  2.2430115743991532e-17  2.2397125940255418e-17  2.2225870024769604e-17  2.2267939645150228e-17  2.2332501245357877e-17  2.2313779586337130e-17  2.2345615841845650e-17  2.2313033325893911e-17  2.2384465179565675e-17  2.2369200508988861e-17  2.2356441731734781e-17  2.2272344532159704e-17  2.2336188651088884e-17  2.2238615698213760e-17  2.2239567060016383e-17  2.2275033329730438e-17  2.2300548675197657e-17  2.2367381978972062e-17  2.2317837401574887e-17  2.2272278405048554e-17  2.2373546624912816e-17  2.2280560662350508e-17  2.2299508097128326e-17  2.2283732740017662e-17  2.2357646083799909e-17  2.2436669058754374e-17  2.2301457361151827e-17  2.2200831971107880e-17  2.2328926014532689e-17  2.2293591181831511e-17  2.2251865171300765e-17  2.2289230968806269e-17  2.2345711811949014e-17  2.2340878458625376e-17  2.2164150985645898e-17  2.2380849890901819e-17  2.2263206866176920e-17  2.2252419205780652e-17  2.2183457296825029e-17  2.2315641480797