<?xml version="1.0"?>
<VTKFile type="UnstructuredGrid"  version="0.1"  >
<UnstructuredGrid>
<Piece  NumberOfPoints="4117" NumberOfCells="16084">
<Points>
<DataArray  type="Float64"  NumberOfComponents="3"  format="ascii">37.9462747373471 23.3323803165413 24.21386576639209  37.18395478091922 22.69483622640617 24.4290562768585  37.82029915890926 23.15204603381346 25.41102818788972  37.86021547535019 22.34505366298998 24.84592004236406  39.89416122436523 26.89837074279785 26.32366943359375  39.89416122436523 26.13434028625488 25.81294059753418  39.0054497064568 26.49302818890436 26.37481521034686  39.16651745968971 27.14190913887518 25.90699491963409  38.66615762581564 27.37660877863503 25.66346657557955  38.99596451528062 26.61537203053052 25.51490666542851  39.13906503870604 27.2767373600448 25.12373059365841  36.96945953369141 24.51296997070312 26.14200973510742  37.83303539708341 24.59326647257377 25.45344331262062  37.7204582648563 23.6418933666157 26.33257167440279  37.92709681177449 24.87628980817237 26.56171822907195  38.32115936279297 26.80061912536621 26.07307052612305  38.79517936706543 27.19247436523438 26.46139526367188  38.61160469055176 27.14749431610107 26.0523853302002  38.0220582227162 26.43847947881373 23.68627026314567  39.26808995519582 26.40690804600046 23.61485837060555  39.0609375537646 25.49943557784553 23.95869180064767  38.70631966397662 25.34829622275958 22.64626434838802  37.34257888793945 25.96702003479004 25.47962951660156  37.58744049072266 26.75551986694336 24.79244041442871  37.9364013671875 26.5443000793457 25.53606033325195  37.67217827305279 25.63236175736633 24.70786695358343  39.31451034545898 27.58259963989258 26.11500930786133  39.21326065063477 27.86722946166992 25.66259956359863  39.89416122436523 27.13921928405762 25.40308952331543  39.89416122436523 26.02708053588867 23.96175003051758  38.80026141993226 26.26199456733091 24.74657231987561  37.683349609375 26.13249015808105 26.09008979797363  38.06182098388672 26.28848075866699 26.69131088256836  38.23570903133646 25.79461069166095 26.50535768948135  39.89416122436523 22.35662078857422 24.44149971008301  39.89416122436523 22.62973976135254 23.65666961669922  39.07324792439192 22.62370164930275 24.80392527143511  38.51702159386282 22.16242346379339 23.83406197393662  39.89416122436523 24.09769058227539 24.55273056030273  39.89416122436523 23.95557975769043 23.60325050354004  39.89416122436523 23.22001075744629 24.08583068847656  39.20041500581033 24.26459789075024 23.66350586887695  37.51968002319336 25.71808052062988 26.67897033691406  37.17229080200195 25.37269973754883 26.17608070373535  38.39260864257812 27.24004936218262 25.2364501953125  36.88142013549805 25.23798942565918 25.45315933227539  39.89416122436523 23.31727027893066 22.97421073913574  39.34265899658203 22.8992805480957 22.06771087646484  38.37905886972133 23.86120549821733 22.56292748203468  38.92273783693603 23.03995616795608 23.29735305156844  39.89416122436523 28.03998947143555 24.13767051696777  39.89416122436523 28.80036926269531 23.51897048950195  39.89416122436523 27.92288970947266 23.1298999786377  38.91031146372923 27.5922364351745 23.56404981256327  38.29737604774661 25.72806834700918 25.71360238788392  38.92300068090366 23.7097495262084 24.84116955392462  36.5489501953125 23.32448959350586 25.08144950866699  37.01420974731445 23.83126068115234 26.79994010925293  37.92353246823861 24.10678978139325 27.56880864123596  39.89416122436523 25.18770027160645 24.30451011657715  39.89416122436523 24.71735000610352 23.55627059936523  39.09603881835938 21.94635963439941 22.78483009338379  39.24156951904297 21.31315040588379 23.549560546875  39.89416122436523 21.94179916381836 23.67524909973145  38.86319292699608 27.07066647201424 24.37787253668149  39.89416122436523 25.83250045776367 24.99488067626953  37.85096047568547 24.72145742277766 23.79294635316235  39.89416122436523 27.0078296661377 23.73040008544922  39.89416122436523 27.00692939758301 22.73558044433594  38.79188475817303 25.21930367767832 26.3019611279985  39.17235863335869 24.90500526497651 26.82031429463449  38.60191061480118 25.26856946059539 27.27982672555522  38.8959858776044 25.87951315379392 26.79477293572628  39.89416122436523 24.56636047363281 26.40884017944336  38.82693771525646 24.01581928164756 26.51527246505548  39.16500890034278 24.84570758261746 25.72037842191029  39.89416122436523 24.22109985351562 22.8830509185791  39.89416122436523 23.92523002624512 22.08342933654785  39.89416122436523 26.60684967041016 24.48933982849121  38.01074981689453 21.95861053466797 22.78303909301758  38.53469848632812 22.47134017944336 21.98744010925293  37.81986999511719 25.67004013061523 27.17857933044434  39.89416122436523 24.93115043640137 22.46191024780273  38.90205001831055 27.49436950683594 26.03170013427734  38.68830871582031 26.89057922363281 26.89109039306641  39.22871017456055 27.34297943115234 26.70783996582031  39.89416122436523 26.75703048706055 27.39888000488281  37.14102172851562 22.39924049377441 22.85330009460449  37.52045822143555 22.54360008239746 22.11096000671387  37.28890201732663 23.14653056069173 23.37631924362872  39.89416122436523 22.47120094299316 22.96138000488281  37.9976806640625 27.50867080688477 24.39238929748535  39.89416122436523 26.28961944580078 23.2093505859375  39.16749179045431 26.62925114785583 22.501224771068  39.89416122436523 25.71849060058594 26.64693069458008  39.01751418705428 22.76587135549193 26.13512200978727  39.89416122436523 23.07043075561523 25.02705001831055  39.12652047106786 27.63543266264914 24.53006622417547  39.89416122436523 23.78498077392578 25.67066955566406  39.20420640935279 26.36718161522374 27.3941671170896  37.21717071533203 22.01378059387207 23.53504943847656  38.95617223822569 25.01442028314656 24.81064356327967  39.11990414708658 25.74558025636252 25.81999936096721  38.89784131104606 27.69372038281584 25.62506727932852  36.58586120605469 22.64957046508789 23.5288200378418  36.30801010131836 22.84660911560059 24.37836074829102  36.90603692344795 24.15507896851686 24.39852014842376  37.71906006616389 21.67338901668943 24.37419407530453  39.19691848754883 27.13595962524414 27.43268013000488  39.89416122436523 27.38463020324707 24.58348083496094  37.87316131591797 21.4028205871582 23.54508018493652  38.58074951171875 20.9376392364502 23.64517974853516  38.61717987060547 21.43717956542969 23.16823959350586  39.89416122436523 25.30982971191406 25.84114074707031  36.92063140869141 23.62441062927246 25.8742504119873  39.89416122436523 24.80301094055176 27.45657920837402  36.60614013671875 24.37858963012695 25.23129081726074  39.89416122436523 24.76236915588379 25.31509017944336  36.71043014526367 22.18335914611816 24.13179016113281  38.45138931274414 27.87916946411133 24.53564071655273  39.89416122436523 25.72677993774414 27.54409980773926  37.25051116943359 24.86099052429199 27.14160919189453  38.82973098754883 28.55491065979004 24.40567016601562  37.16698837280273 21.33357048034668 24.26094055175781  39.89416122436523 25.53498077392578 23.32181930541992  36.6879997253418 22.12351036071777 24.77226066589355  38.00725936889648 28.3884391784668 23.84596061706543  36.52402877807617 22.68827056884766 24.96463966369629  36.88336944580078 22.54373931884766 25.61547088623047  38.26605987548828 26.11433029174805 27.3271598815918  39.34527969360352 28.08836936950684 24.91522979736328  39.89416122436523 26.07751083374023 22.40810966491699  36.87015151977539 21.43549919128418 25.20185089111328  39.89416122436523 28.84082984924316 24.31574058532715  38.89311981201172 27.91736030578613 25.16888999938965  38.51280975341797 26.489990234375 28.01865005493164  39.28567886352539 27.21902084350586 28.17214012145996  26.3107795715332 2.891041994094849 33.58572006225586  26.62365913391113 2.226325988769531 34.19915008544922  27.10149955749512 2.799056053161621 33.67927169799805  26.23845673385199 3.476892965489231 33.88606362212148  36.8660351966153 16.20502980967019 28.60736809656953  35.96477040860787 17.19682345424039 27.95311113440767  37.49320536468388 17.43557901196133 27.60758431573566  36.71993107668517 17.92622206811004 29.25819738750189  33.11483001708984 17.28025054931641 29.95257949829102  33.88375854492188 17.18732070922852 29.55645942687988  34.57072406613248 17.48280827298325 30.42666791858331  34.09026107313191 16.55571440184556 30.51268137688902  34.68006896972656 13.06538009643555 24.51547050476074  35.50333023071289 12.68857955932617 24.29021072387695  34.72109337889442 11.85350323099136 24.43751351647833  35.36427935633157 12.32520363328645 25.13113254348877  27.9859504699707 6.937576770782471 34.44842147827148  27.3421143170988 6.827407695105331 35.55319378518249  27.26948144183415 6.468575613337436 34.25145476076509  27.49939772211724 6.040561868154662 35.0636229773681  19.91542053222656 10.74433040618896 38.49259948730469  19.94610977172852 9.857664108276367 38.18770980834961  21.14235550672289 10.27471129123756 38.79845195042704  20.81327712105984 10.70207556178925 37.35253039738533  32.82822036743164 19.20314979553223 38.07062149047852  32.91257858276367 18.3771800994873 37.8048095703125  33.27568501011447 19.18917403450212 37.28318304680815  32.58183381278117 18.93603798961593 37.25466432556418  25.08498954772949 0.463454008102417 38.83377838134766  25.3684196472168 0.09558500349521637 38.26507186889648  25.00940381935096 0.9608698497896054 38.00600908328587  25.81312260386077 0.8723156340637668 38.58110403654901  29.50457000732422 10.9754695892334 35.53081893920898  29.8074893951416 10.90530014038086 34.70655059814453  29.50317931132104 12.34687554127081 34.60804769156135  30.2639361831956 12.26682612572651 35.45012590987027  24.11541938781738 5.194726943969727 31.59728050231934  24.03335952758789 4.374146938323975 31.92173004150391  24.60001945495605 4.503707885742188 31.19667053222656  24.80891990661621 4.107397079467773 31.83527946472168  38.59210968017578 14.19577980041504 30.99505996704102  37.87430072551417 14.5708273334112 3
[...]
<PointData  Scalars="p_CO2"> 
<DataArray  type="Float64"  Name="p_CO2"  format="ascii">4.5001649218820290e+01  4.5000340237964110e+01  4.5000444880245929e+01  4.5002146481004409e+01  4.5003367937705470e+01  4.4998992129989482e+01  4.4999667977327633e+01  4.5001331096449583e+01  4.5000358455023580e+01  4.5001249307025077e+01  4.5002105224850354e+01  4.4999864042007715e+01  4.5000376731761790e+01  4.5000481964437412e+01  4.4999525433419208e+01  4.4999892031332486e+01  4.5000625053232518e+01  4.5000222750661173e+01  4.5002034252864838e+01  4.5001843758001833e+01  4.5001824600095574e+01  4.5002984691440631e+01  4.5000130494305559e+01  4.5000948540246227e+01  4.4999861484559567e+01  4.5000139964613624e+01  4.5001039067268323e+01  4.4999171247091439e+01  4.5007991049823040e+01  4.5000802519674153e+01  4.5001365756015446e+01  4.4999829294846563e+01  4.5000217151206485e+01  4.4999511871551633e+01  4.5005604678792757e+01  4.5008136370448518e+01  4.5001562748321724e+01  4.5002335900246152e+01  4.5000066141329640e+01  4.5009071411546842e+01  4.5004053692023120e+01  4.5003439486534553e+01  4.5000248634962908e+01  4.4999934212228723e+01  4.5000262446199351e+01  4.4999698946118066e+01  4.5019919325683475e+01  4.5005717157722010e+01  4.5003099995378015e+01  4.5005321691953625e+01  4.5016177508633021e+01  4.5007307931093891e+01  4.5006381950377730e+01  4.5004998875765111e+01  4.4999971911100410e+01  4.5000905992917154e+01  4.4999716495977985e+01  4.4999932178343464e+01  4.4998802460634145e+01  4.5000506331585910e+01  4.5002613634062492e+01  4.5001146441100083e+01  4.5002218367681053e+01  4.5013260752516729e+01  4.5002937490622934e+01  4.4999060399077251e+01  4.5001910317495550e+01  4.5003840986095071e+01  4.5003957185461793e+01  4.4999074121648299e+01  4.4997837498377820e+01  4.4998835675463518e+01  4.4998845756756346e+01  4.4996922776644503e+01  4.4998698757490466e+01  4.4998813642673760e+01  4.5012592007248017e+01  4.5026276366140728e+01  4.5003454991329171e+01  4.5000497515973699e+01  4.5003730389205643e+01  4.4999610381672106e+01  4.5006514837468764e+01  4.5000988926622945e+01  4.5000180945536435e+01  4.5000416730846908e+01  4.5000915210857968e+01  4.5000676346146946e+01  4.4999246582255417e+01  4.5000819444137129e+01  4.5015533819562954e+01  4.5000504092415596e+01  4.5001406946593605e+01  4.5004900588225958e+01  4.4996776794785497e+01  4.4999441989554953e+01  4.4999738320294760e+01  4.5004969665148060e+01  4.4998573000619515e+01  4.4998634887150288e+01  4.5000368087474122e+01  4.5000746349267587e+01  4.4999428725846847e+01  4.5000663297130750e+01  4.4999943041089821e+01  4.4999990737846211e+01  4.5000338198175676e+01  4.5001725164612068e+01  4.4999686024578779e+01  4.5012758844304479e+01  4.5000359116486727e+01  4.5000840966345329e+01  4.5000336671058598e+01  4.4997512594779245e+01  4.4999976547124710e+01  4.4996099824906466e+01  4.5000422013792502e+01  4.4998289748229567e+01  4.5000332489984721e+01  4.5000991240868977e+01  4.4996133983799623e+01  4.4999941144797020e+01  4.5000357437386796e+01  4.4999304856684724e+01  4.5001170087608415e+01  4.5000251096029878e+01  4.5000923029466144e+01  4.5000460321882613e+01  4.5000408207999456e+01  4.4999250234762620e+01  4.5006960917476249e+01  4.5002192993904018e+01  4.4999965797288148e+01  4.5008220929576908e+01  4.5002325584585428e+01  4.4999406233295865e+01  4.4999964890052404e+01  4.5000405574353458e+01  4.4999897746682265e+01  4.4999446271413284e+01  4.5001062338596604e+01  4.5011359864008284e+01  4.5000191833149387e+01  4.5011188276849317e+01  4.5010889188117339e+01  4.4999601995190993e+01  4.5001284830285130e+01  4.4996879759016856e+01  4.4997890085106704e+01  4.4993036333729854e+01  4.5002453498249757e+01  4.4997628373795052e+01  4.5000342600794653e+01  4.5000270855820816e+01  4.5000506782655094e+01  4.4999214317817973e+01  4.4999812975574265e+01  4.4998575496902376e+01  4.5001496506941869e+01  4.5000407901532853e+01  4.5000108020033274e+01  4.5001475125724198e+01  4.4999993591875246e+01  4.5000152720668190e+01  4.5000470145340394e+01  4.4999529607000881e+01  4.5000696476704590e+01  4.5001298496912845e+01  4.5000178601569907e+01  4.5000739659680264e+01  4.5000273037427377e+01  4.4999052795643735e+01  4.5004310378785057e+01  4.4999533221348372e+01  4.4998825555205862e+01  4.5003076090259462e+01  4.4998801524056177e+01  4.5010506312635151e+01  4.5018107582653677e+01  4.5020582771876938e+01  4.5052793208503317e+01  4.5001803271555254e+01  4.5000888938678116e+01  4.5000132741098369e+01  4.5002310384919554e+01  4.5027846104458902e+01  4.5027599359815767e+01  4.5021994931335399e+01  4.5022755978713164e+01  4.4999794550407756e+01  4.5000102425359913e+01  4.4999710320739766e+01  4.5000296556111273e+01  4.4999896088117090e+01  4.4997998199710437e+01  4.4998809607370696e+01  4.5001295585339605e+01  4.4997819962626444e+01  4.4999583530334306e+01  4.5000875733813707e+01  4.4999157997500255e+01  4.5000513323556888e+01  4.4997896682262223e+01  4.4998858425594072e+01  4.5001232876846181e+01  4.5004439238991935e+01  4.5001844378912757e+01  4.5005560569431637e+01  4.5005364688649458e+01  4.5000064556296714e+01  4.4999998891122004e+01  4.5000076191481980e+01  4.4999569306864778e+01  4.5000060767628064e+01  4.5000008605342423e+01  4.5000003806453016e+01  4.5000126558835369e+01  4.4998452672913331e+01  4.4998072746096113e+01  4.4997512422941249e+01  4.4999634496925410e+01  4.4999388927426146e+01  4.4999019753819702e+01  4.4999559951346797e+01  4.5002086478885104e+01  4.5001123873528677e+01  4.5001449943561937e+01  4.5009367919069625e+01  4.5008718248035393e+01  4.5001326528383856e+01  4.5000179787652030e+01  4.4999380118095608e+01  4.5000158927347485e+01  4.5003169923861854e+01  4.5002299802770402e+01  4.5161293131870984e+01  4.5028868168624122e+01  4.5003791153477586e+01  4.4999983962637110e+01  4.4999058939504984e+01  4.5004611454218384e+01  4.4998524354921848e+01  4.5001623793789605e+01  4.4999675928815655e+01  4.4991830789316225e+01  4.5013047674444536e+01  4.5063953811996591e+01  4.5015316267703440e+01  4.4997261843191659e+01  4.5001451396682697e+01  4.5002282654520812e+01  4.4998648848723654e+01  4.5000154089699478e+01  4.4999803936696146e+01  4.5000337606493616e+01  4.4999835952703783e+01  4.4999799547793444e+01  4.5001243307346769e+01  4.4996051161004445e+01  4.4998404373944432e+01  4.5001286539486074e+01  4.4999993773854257e+01  4.5000153538321676e+01  4.5000662339004677e+01  4.5000762481036460e+01  4.5002961579256009e+01  4.5001734715453964e+01  4.5008991902867329e+01  4.5005602266846289e+01  4.5002876342278547e+01  4.5001400800620516e+01  4.5000418080694146e+01  4.5000030597810145e+01  4.4997848095228342e+01  4.4989645456916044e+01  4.5007413534749212e+01  4.4993444070205115e+01  4.4999797152443712e+01  4.4999237803910319e+01  4.5004950627052736e+01  4.5002097987193288e+01  4.5005230872088916e+01  4.4997979953796765e+01  4.4996047099929790e+01  4.4985258859040840e+01  4.5008068964558831e+01  4.5005904908857644e+01  4.4996960216560197e+01  4.4999462214378987e+01  4.4998655630874680e+01  4.4996753848197464e+01  4.5000106969209021e+01  4.4999905925256641e+01  4.5003682830140299e+01  4.5006118070670560e+01  4.5000159534127413e+01  4.4999890390916612e+01  4.4999733657664954e+01  4.5000012900933569e+01  4.5003899006370382e+01  4.4995450791280533e+01  4.5001853016148068e+01  4.4999530874724002e+01  4.4997388349895594e+01  4.4999070384998014e+01  4.5035447483895922e+01  4.5081759988930280e+01  4.5011102374950624e+01  4.4999891759171732e+01  4.4995004154062798e+01  4.5001714741716576e+01  4.4999776103182953e+01  4.4999616834145577e+01  4.4999738409846231e+01  4.5000994714176642e+01  4.4998621372382971e+01  4.5055989517982489e+01  4.5053477698035579e+01  4.5075379319826531e+01  4.5014672790911241e+01  4.5098390943534994e+01  4.5002950432096377e+01  4.5026476371500671e+01  4.4998281601027635e+01  4.4998938555455531e+01  4.4999872836040502e+01  4.5005758928375094e+01  4.5000050211638204e+01  4.5000347153454356e+01  4.4999451085387598e+01  4.4999636374175928e+01  4.4999915339806144e+01  4.4999638652875802e+01  4.4999686849606043e+01  4.4998647615575699e+01  4.5007172680753179e+01  4.5000119513492130e+01  4.4991916855202206e+01  4.4997550831678950e+01  4.5001636121098066e+01  4.5007219475637058e+01  4.5014099352072080e+01  4.5011701010052597e+01  4.4996614743519594e+01  4.5000059551952717e+01  4.4999151525090966e+01  4.4996172285570140e+01  4.5000011710659912e+01  4.4999855564636469e+01  4.5000140722585712e+01  4.5000109032454027e+01  4.4995859746962147e+01  4.5000636344514206e+01  4.5002799956487522e+01  4.4996113538389061e+01  4.4999997909099797e+01  4.5002933171511081e+01  4.5005220537049873e+01  4.5005392711169506e+01  4.5002438402844724e+01  4.5000421096024731e+01  4.5004292668980455e+01  4.5004907813732487e+01  4.4998836998968592e+01  4.4999024618531074e+01  4.5003523590453824e+01  4.4999091195593422e+01  4.4999328138397090e+01  4.5004969871521610e+01  4.4998068734137000e+01  4.4998070891811913e+01  4.5000599809136290e+01  4.4999997351458440e+01  4.4999541348400179e+01  4.4999495065068167e+01  4.5000300223954071e+01  4.4999971508692916e+01  4.5001292075264480e+01  4.5001523158468729e+01  4.4996728970745316e+01  4.5020834894419664e+01  4.5021433248678711e+01  4.4999989842266871e+01  4.5000107459465490e+01  4.4999987895611795e+01  4.5000677852617763e+01  4.4999754074440141e+01  4.4995796374234182e+01  4.5009292724621481e+01  4.5006539106652802e+01  4.4999925280359150e+01  4.4986660098516801e+01  4.5001037657219747e+01  4.4996145638694884e+01  4.5001827815748271e+01  4.5000358751489728e+01  4.5004180151178268e+01  4.4998973316761365e+01  4.4999547182716988e+01  4.5001389117821809e+01  4.4996927990606608e+01  4.5005390571650274e+01  4.5004446870592396e+01  4.5002661507413954e+01  4.4998345760603613e+01  4.5001091831631868e+01  4.5001207514772247e+01  4.5000605629443470e+01  4.5002516410484098e+01  4.5003309492891127e+01  4.4997103077055492e+01  4.5055260270797305e+01  4.5041193369243651e+01  4.5009323871577124e+01  4.5004280880685343e+01  4.4999995968352771e+01  4.5003073710018477e+01  4.5000344272834475e+01  4.4997766070612002e+01  4.4997560300099295e+01  4.5001817099575028e+01  4.5003780783718383e+01  4.5000090656858653e+01  4.5000144006629085e+01  4.4999914404842436e+01  4.5000031995151716e+01  4.4995094170614315e+01  4.4988984860373719e+01  4.5006438811297329e+01  4.5003850032970455e+01  4.5000058609414900e+01  4.5000075788432703e+01  4.4999980431302532e+01  4.5000043685040623e+01  4.4991005581393679e+01  4.5000796498687741e+01  4.4995020580075476e+01  4.5004529381029201e+01  4.4999802224781334e+01  4.5000828607281278e+01  4.4999428706974008e+01  4.5004648066286897e+01  4.4998748695556330e+01  4.5002156207958876e+01  4.5002822822116215e+01  4.5000032143138597e+01  4.4994173000998813e+01  4.5051053513247737e+01  4.5029273974306932e+01  4.5017916485109005e+01  4.5028547014981463e+01  4.5002035274650389e+01  4.5003083117814413e+01  4.5008632858892824e+01  4.5006277396032999e+01  4.5002668536870239e+01  4.4996409941077403e+01  4.4992987405739484e+01  4.5001768737967907e+01  4.4992907492628383e+01  4.5003273965008709e+01  4.5011978888199792e+01  4.4997053379187804e+01  4.5001037339150933e+01  4.5002142021760420e+01  4.5001980637607836e+01  4.4999220157054637e+01  4.5008091880633273e+01  4.5004530339438730e+01  4.5000505747121039e+01  4.5009300033761519e+01  4.5006223917981181e+01  4.5003017325135268e+01  4.5001526198213845e+01  4.5005323604110906e+01  4.5002276986918275e+01  4.5001680879193358e+01  4.4997724547460543e+01  4.4999502102396200e+01  4.5014389199852587e+01  4.5007789521070393e+01  4.5000867911476270e+01  4.5001028746674173e+01  4.4999001586951870e+01  4.4996647172378879e+01  4.5002673158688218e+01  4.5001728572651508e+01  4.4994588692331575e+01  4.4999992280204722e+01  4.4999859112596042e+01  4.4998818824393680e+01  4.5000273861708152e+01  4.5006675241975948e+01  4.5001787998799870e+01  4.5000274035458204e+01  4.5021536671103959e+01  4.5028870427774102e+01  4.5022911276824274e+01  4.5014574362904533e+01  4.5072170776342489e+01  4.5050387962434947e+01  4.5118973053932507e+01  4.5028535830032077e+01  4.4997493102996984e+01  4.5001871130328169e+01  4.4997684772840870e+01  4.5000591367231777e+01  4.4999941086255483e+01  4.4999200884946539e+01  4.4998928973896852e+01  4.4999818656719462e+01  4.5000031751559476e+01  4.5003121400474292e+01  4.4998834864062133e+01  4.4998428668992204e+01  4.4999952149005374e+01  4.5000805388438636e+01  4.5000485105121925e+01  4.5001410257016410e+01  4.5020142503771602e+01  4.5004208095580090e+01  4.4997919776797318e+01  4.4992514935863021e+01  4.5008968431229334e+01  4.5008877280589807e+01  4.5000143625894424e+01  4.4998348847338143e+01  4.5002490401018427e+01  4.5001789586588771e+01  4.4999900386264379e+01  4.5000746079220690e+01  4.5004577942721333e+01  4.5004331600088477e+01  4.5005990505236127e+01  4.5011526265979207e+01  4.5003288428550555e+01  4.5002046170838511e+01  4.4999362695368212e+01  4.5001248907607284e+01  4.4999649133302128e+01  4.4999080978198556e+01  4.4999833619823512e+01  4.5000165113455026e+01  4.5024885239815255e+01  4.5008772076010729e+01  4.5009724456003639e+01  4.5016516181533547e+01  4.4998955654164639e+01  4.4997337869369233e+01  4.4997920115446995e+01  4.4991240253351187e+01  4.4998326188896691e+01  4.4995480125984855e+01  4.4989608904370606e+01  4.5208598225804913e+01  4.5035034507961747e+01  4.5048933109189484e+01  4.4999081909539875e+01  4.4998729874185742e+01  4.4999268376407535e+01  4.4998603603175688e+01  4.4998413231125447e+01  4.4999308399036217e+01  4.4998424032642632e+01  4.4999082588284331e+01  4.5001000068560970e+01  4.5000116039228189e+01  4.4999403598149712e+01  4.5001163198976457e+01  4.5000398296857540e+01  4.5002868854528799e+01  4.4999326460094977e+01  4.4998929872630477e+01  4.5000235566462706e+01  4.4999669374923961e+01  4.5002127233164103e+01  4.5001025456407937e+01  4.4998928268049760e+01  4.5000648964338303e+01  4.4996585801178917e+01  4.4999782837020227e+01  4.4996683374842114e+01  4.4998108239041848e+01  4.5000678224964169e+01  4.5001727861445282e+01  4.5001172046360054e+01  4.4999158922092164e+01  4.5000153781081806e+01  4.5004310504069480e+01  4.4994292827886177e+01  4.4986652029386022e+01  4.4999392441193798e+01  4.4999957377976095e+01  4.4999606690829786e+01  4.4999817684285432e+01  4.5000018650133413e+01  4.4999748234573481e+01  4.5000348155096695e+01  4.5004181992005506e+01  4.5008400060903888e+01  4.5007639301191929e+01  4.4997317485424965e+01  4.5002394386364202e+01  4.5001642307113421e+01  4.5000070751557885e+01  4.5000500823885417e+01  4.4998414114323104e+01  4.5009288887628642e+01  4.5001474981828707e+01  4.5007392350469225e+01  4.4999606754046312e+01  4.4998123798674960e+01  4.5002826858842745e+01  4.4999628220868992e+01  4.4998091710555457e+01  4.4995127511069498e+01  4.4998627509789451e+01  4.4999423901939842e+01  4.5001318090398783e+01  4.4999981153334858e+01  4.5000541900998783e+01  4.5003182236841518e+01  4.4998188888030128e+01  4.5000995719171975e+01  4.5006917827718944e+01  4.5010326269246541e+01  4.5003499040989439e+01  4.5008298168442415e+01  4.5001426758169629e+01  4.4999775033602496e+01  4.4998547452349314e+01  4.4995421346162665e+01  4.5019729397286653e+01  4.4998273114227125e+01  4.5014142816517641e+01  4.4998835271481127e+01  4.5000741280350347e+01  4.5005159790775302e+01  4.4999836578051664e+01  4.4997742195777050e+01  4.4998857835399669e+01  4.4997067420275940e+01  4.4999805894587070e+01  4.4998800800367142e+01  4.4996631795330600e+01  4.5007038141916624e+01  4.4999428031477947e+01  4.4994744614477455e+01  4.5000766298025219e+01  4.5005039723368405e+01  4.4999411394883801e+01  4.5000176265320682e+01  4.5001380186649932e+01  4.4999481251470080e+01  4.5018492456291746e+01  4.5028922443313967e+01  4.5014337664556727e+01  4.5012912117178004e+01  4.5000519462450548e+01  4.5000688866954256e+01  4.5004115604382669e+01  4.5003295953477505e+01  4.5007603049355886e+01  4.5005481026440108e+01  4.4999360339439740e+01  4.4999042758954637e+01  4.4999294156740341e+01  4.5001171287112797e+01  4.5000777644505767e+01  4.4996400950500515e+01  4.5002212133068049e+01  4.5001643415850602e+01  4.4999000091552645e+01  4.5004128674264656e+01  4.5033859212398831e+01  4.4998060500787957e+01  4.4999117781200532e+01  4.4998329209604755e+01  4.4999162439809524e+01  4.4999879550542246e+01  4.4999672484250631e+01  4.4998769244482730e+01  4.5001007551692851e+01  4.5001168465142285e+01  4.4999352919736424e+01  4.5001630283537871e+01  4.5001724881791773e+01  4.4998838037108534e+01  4.4999475117624243e+01  4.4999691777427607e+01  4.4999568614597145e+01  4.5000146170953862e+01  4.5016589177360487e+01  4.4995045817063165e+01  4.5008613983179217e+01  4.5010447312030848e+01  4.4998960846363424e+01  4.4998742169641588e+01  4.4999636612106386e+01  4.5015794336834063e+01  4.5006988178362384e+01  4.4998257245782405e+01  4.5010584938344273e+01  4.5000445588413179e+01  4.5000918740407009e+01  4.5000249967214131e+01  4.5004466925129819e+01  4.4999423021100881e+01  4.5003279696885329e+01  4.5006228031221745e+01  4.5007418468649220e+01  4.4997526668280400e+01  4.5001190672515115e+01  4.4998966086308428e+01  4.4997366648833200e+01  4.4998455198197902e+01  4.5001549588765613e+01  4.5000090903282249e+01  4.5000472652239509e+01  4.5001311809999820e+01  4.4995766973344601e+01  4.5000150329573465e+01  4.4999078744936540e+01  4.5003055123013773e+01  4.4997202594018582e+01  4.4997736667949297e+01  4.5002559270148367e+01  4.5005931850474568e+01  4.5019705722700742e+01  4.5027418426671325e+01  4.5014201364522485e+01  4.5028802438578033e+01  4.5026712844567108e+01  4.5001823815537428e+01  4.4998576634148222e+01  4.4999861517564270e+01  4.5003602674640867e+01  4.4996975852040521e+01  4.4999422774616598e+01  4.5000409621606778e+01  4.5141484313053319e+01  4.5134593071138411e+01  4.5109343025515130e+01  4.5028342823436795e+01  4.5008523453114876e+01  4.5016146316957830e+01  4.5021868648741602e+01  4.5033310468749811e+01  4.5020358048066960e+01  4.5029518063154583e+01  4.5000076126922323e+01  4.4999664859913082e+01  4.5000368797977323e+01  4.4996886489406172e+01  4.4997797486449407e+01  4.4999377799682314e+01  4.5000907666296413e+01  4.5000639397855203e+01  4.4998492086471899e+01  4.4999965332014689e+01  4.4999967395153931e+01  4.5039562591551160e+01  4.4999982835213949e+01  4.4999918062558265e+01  4.4999985406760082e+01  4.5000033817719277e+01  4.4997527503969252e+01  4.5000280714618732e+01  4.4999225379881892e+01  4.5001548952242970e+01  4.4999088792543951e+01  4.5003035696576653e+01  4.4999349678238630e+01  4.5000324295682532e+01  4.4998976219559275e+01  4.5002096922463380e+01  4.4999322773428780e+01  4.5001848855405413e+01  4.4999242887680133e+01  4.5002052225039918e+01  4.4999259055814839e+01  4.4999290254317273e+01  4.5001798776593120e+01  4.4993394217411058e+01  4.5000883643793586e+01  4.5012307359431112e+01  4.4993506638278362e+01  4.5003433901376638e+01  4.5001226692675907e+01  4.5009379273780986e+01  4.4999310282995147e+01  4.4999542861446649e+01  4.5000315765525841e+01  4.4998483477104713e+01  4.5000021165806480e+01  4.4999998789611432e+01  4.5000014741325757e+01  4.5000054469679434e+01  4.5001532610521586e+01  4.4999974180818569e+01  4.5001887365445519e+01  4.5000749167517810e+01  4.4999976316049683e+01  4.4999287447655767e+01  4.5003463324575712e+01  4.5002130546548607e+01  4.4996598252587951e+01  4.5000119169627844e+01  4.5001403851627238e+01  4.5000529364170980e+01  4.5000287125963879e+01  4.4999533542786700e+01  4.5000041241675170e+01  4.5000151584138912e+01  4.5000382122969640e+01  4.5000315843335450e+01  4.5000594194813623e+01  4.4999913588167935e+01  4.5000927480085842e+01  4.5000256057340550e+01  4.4996852062741134e+01  4.5001622409126419e+01  4.4999919098898147e+01  4.4999163351510454e+01  4.4999205325512321e+01  4.4996726992110396e+01  4.4998109576919518e+01  4.4999867696993114e+01  4.5000165804404610e+01  4.499980086125632