<?xml version="1.0"?>
<VTKFile type="UnstructuredGrid"  version="0.1"  >
<UnstructuredGrid>
<Piece  NumberOfPoints="5550" NumberOfCells="23635">
<Points>
<DataArray  type="Float64"  NumberOfComponents="3"  format="ascii">37.49216068403028 12.21648981040125 8.095694586986866  37.85860307693361 13.34811827491466 7.325810020631831  37.95977437383005 12.28354938211154 6.998117904514942  38.32857882343121 12.76088951826553 7.662516863849856  38.09477197853133 12.72735973241038 8.211305205085818  38.69738327303237 13.23822965441951 8.32691582318477  36.79878997802734 9.262807846069336 1.688738942146301  37.71601104736328 8.986710548400879 1.475877046585083  36.92537548696308 9.680748230313407 1.11326724399744  37.71846697675683 9.975918589153887 1.642675675665137  39.01948928833008 10.41880989074707 4.076076984405518  38.60103491872403 10.40396716201348 3.170662717759796  39.12393159979191 10.71591591793173 3.516412914395175  39.45682525634766 10.48663473129272 3.584073543548584  39.89416122436523 10.55445957183838 3.09207010269165  39.56126756780949 10.78374075847739 3.024409473538242  39.24759807154463 10.47921336692593 3.131366410225723  39.22837391125374 11.01302194511639 2.956748844384833  33.30633163452148 21.30986022949219 2.482315063476562  33.97246932983398 20.60836982727051 2.805136919021606  34.55665605447114 21.69606344716639 3.303952122716239  33.56709023005264 21.1158705144635 3.419158898785183  38.53730010986328 17.822509765625 6.394937992095947  38.14068984985352 17.92959976196289 5.671009063720703  38.01125214743581 18.65569125556476 6.30765730975271  37.77624126086449 17.47761647868599 6.649381574429477  35.14735463582582 19.25467770425868 8.836748956366401  36.18706447945925 18.22284776024765 10.03073471096375  34.74067797813256 18.97623647280767 10.2585980605128  34.84428511463472 17.76768588240506 9.287543329036389  37.81230799124743 17.61735888698732 2.590572037657776  36.7329461664926 17.94403928536989 1.500892701696348  37.59576667055741 17.02301436258406 2.045254420970579  37.5845095138251 17.67028044729727 1.745842269202779  37.35671103640277 17.72320200760723 0.9011125007477829  37.05608575818 17.18635456177535 1.500414752989865  37.36796819313508 17.07593592289401 1.200524652515582  37.3792253498674 16.4286698381808 1.499936804283382  34.74761962890625 17.74810028076172 2.723489999771118  35.12316408715323 17.08114685410702 3.143560375530884  34.10531669061659 16.77841197789907 3.167351811680009  34.04207229608372 17.60073405107889 3.514044876671245  32.86294174194336 19.51552963256836 3.073261976242065  33.76773834228516 19.80286026000977 3.029623031616211  33.56578826904297 18.94057083129883 3.028676986694336  33.11169596217979 19.98944222727051 3.940632093918834  35.84092518447877 11.16655659155479 12.30099509291965  35.67516086543636 12.3114326509223 12.07023701696516  36.17136861878267 12.19424790042177 11.06423916821011  36.63147891116142 11.58998281579962 11.79924662860359  37.42203263784408 12.01340904004444 11.29749816428754  36.35868729869061 19.73597852706065 6.661378070023307  36.74509316120012 18.25556357431419 6.843193508910413  35.93160701513679 19.95286922238614 8.02532554465607  36.70159351306621 19.52194051554598 7.784628499569012  37.04449972744182 19.30790250403132 8.907878929114716  36.89479644432097 18.78173303917276 7.875536219012565  37.3685302734375 22.8817195892334 2.189084053039551  38.09925842285156 22.49547004699707 1.941405057907104  37.53417619439752 22.2534004478756 1.617855110764157  37.41427684055422 22.15926258686952 2.187358674528938  36.96909396594347 22.01133084875413 1.29430516362121  37.77964091526125 21.96613781575135 2.063519176962715  37.46002340767094 21.43680558450563 2.185633296018325  30.69807052612305 23.24926948547363 0.6441900134086609  31.20569038391113 23.95004081726074 0.1048400029540062  31.66411018371582 23.35832023620605 0.7113509774208069  31.22906115201452 24.40707403224135 1.222138036314864  36.74039077758789 10.16604995727539 0.1048400029540062  36.99175071716309 9.649038791656494 0.3946195058524609  36.28715037048399 9.990343584102757 0.8970269887632627  37.4044138188775 10.06997001839966 0.7171075193926539  39.89416122436523 19.95080947875977 7.427981853485107  39.5112052257134 19.48562170471667 7.446631203515128  39.89416122436523 19.59790992736816 7.148863315582275  39.89416122436523 19.63031959533691 7.544533014297485  39.89416122436523 19.30982971191406 7.661084175109863  39.5112052257134 19.13272215332507 7.167512665612296  39.5112052257134 19.16513182129382 7.563182364327506  39.89416122436523 19.27742004394531 7.265414476394653  39.89416122436523 19.24501037597656 6.869744777679443  39.12824922706156 19.02043393067358 7.465280553545149  37.49355393418582 8.694311736430642 13.56569335215885  37.73059081184231 10.05393930510424 13.7611709951648  36.61206851919196 9.636919742476813 13.92416988214483  37.19718498733004 9.748635178439923 13.02958198924343  37.07866654850179 9.068821394103121 12.93184316774045  36.66377916281777 9.443331051775603 12.29799298332205  35.29422912211865 13.2232571463952 13.2240134562381  36.10445750119688 14.44533092148826 13.22265150907445  35.90715834933867 13.66303893397257 12.2621358510329  36.35644030360353 12.69775403906344 13.34873896257793  38.59587860107422 9.887117385864258 7.719407081604004  38.29071356010524 10.0251981553505 8.492494168682166  37.62128151859026 10.43807904907475 7.65298686687172  37.75564727633122 9.617798541675656 8.27790339306684  36.82065527882757 14.70724381072298 11.77208122874694  36.60916923886442 15.80571234311839 11.29551360317229  35.30417556340569 14.48093984262399 10.83470478934141  35.95611925010207 15.19698890169278 10.21303227924096  36.99766550670613 16.98397214550143 8.303000999241032  35.66166822584167 15.90564752102694 9.138545816868195  36.36827233313419 16.39772596255102 9.638224533509014  37.14227210824777 16.2859271496823 9.012179865374293  37.03627097356642 16.93688827478827 9.220452124695433  37.28687870978941 15.58788215386317 9.721358731507552  37.0748764404267 16.88980440407511 10.13790325014983  36.8985710144043 13.49016952514648 14.60649967193604  36.06623001083057 13.7545789881111 14.05693112003537  37.11127519122999 13.86406017401079 13.22921391798275  38.49338912963867 12.95320987701416 5.418471813201904  39.13330841064453 12.95938014984131 5.968968868255615  38.33408161465507 12.86150438844792 6.149588485100842  38.66875169905117 12.54496232300814 5.847685287167121  38.74840545654297 12.59081506729126 5.482126951217651  39.0683650970459 12.59390020370483 5.757375478744507  39.00342178344727 12.22842025756836 5.545782089233398  39.89416122436523 13.85678958892822 11.46578979492188  39.66260329515359 13.46229105753362 11.1852707077534  39.89416122436523 13.45230960845947 11.13778972625732  39.89416122436523 13.49068975448608 11.55015468597412  39.89416122436523 13.12458992004395 11.63451957702637  39.66260329515359 13.09619122309148 11.26963559880565  39.89416122436523 13.08620977401733 11.22215461730957  39.89416122436523 13.04782962799072 10.80978965759277  39.66260329515359 13.05781107706487 10.85727063908885  39.43104536594193 13.06779252613901 10.90475162058492  39.13047027587891 15.04164028167725 12.80552005767822  38.77210394611606 14.12807620947834 12.40352318289377  38.10708983553855 15.27489093681445 12.30356237926225  38.83194643191779 14.66437900484894 12.00030707844455  39.01112959679921 15.1211610409484 12.20130551583678  38.89178891771952 15.20068180021955 11.59709097399534  34.87004852294922 23.99275970458984 3.689127922058105  35.21757125854492 23.91720962524414 2.856697082519531  34.80534432292267 23.124486277421 2.555614125753421  34.23331588211873 23.4225875795997 3.530246185003485  33.41685104370117 17.03499031066895 6.937251091003418  32.98862075805664 16.29446983337402 6.517088890075684  33.69499969482422 16.18424987792969 7.202981948852539  34.08090944035913 16.41319741977486 5.953547990637835  37.9563102722168 24.45449066162109 10.94330024719238  38.35604095458984 23.67276000976562 10.98674964904785  37.93266571448841 23.79186739496246 10.47433739499461  38.23667321424424 24.20168106594373 10.2364954615148  38.51703615627169 23.94887147026637 9.529690675837218  37.90902115676003 23.12924412830383 10.00537454279683  37.0293486401608 19.25847480897226 5.636638718304585  35.20365255686753 19.97853859755638 5.327278236557073  36.14631990422436 20.91001551036878 5.920605655274835  39.06002044677734 9.802163124084473 3.143800973892212  38.40341186523438 9.680472373962402 3.127752065658569  38.49246978759766 9.276086807250977 2.437313079833984  38.69223335830806 10.51119106624153 2.27453237530703  34.17594875092542 15.12032090524468 12.77623294834007  35.4706155596364 15.03985646780694 11.97278209767646  35.40405694678407 15.23963949950818 13.38676189266111  34.94408553450796 14.18695364509775 12.89521663844785  31.28591918945312 21.94305992126465 4.784409999847412  32.80094617480992 21.41398606451173 4.341968294860698  32.02189187889046 21.61174040170578 3.558259603961412  32.22615826407446 22.47011199695945 4.336369538412988  35.88731212039053 21.36388735339386 4.24674366295765  35.38957958845645 22.15729478953072 5.778235738472109  35.98478311663089 22.43086153743008 4.791710289088789  33.26342010498047 26.51556968688965 4.005504131317139  33.63182830810547 25.7545108795166 3.845300912857056  32.46904113723465 25.8772973663796 4.299280188946014  32.79766149489416 25.84333211257402 3.067414546342718  36.44170934671678 10.3861975996989 10.49590087202069  36.02133992304846 10.95210513682665 11.37011619577613  35.81557831663489 9.612654936079863 10.73680525499108  36.55274425476728 9.914764325737249 11.39694692767137  39.2039909362793 18.01194000244141 3.59835410118103  38.99462453559197 17.44827415925641 3.052304420015637  39.12794019423463 17.95531420984108 2.817483115105301  39.54907608032227 17.64600467681885 3.222120523452759  39.89416122436523 17.28006935119629 2.845886945724487  39.33970967963494 17.0823388336338
[...]
<PointData  Scalars="p_CO2"> 
<DataArray  type="Float64"  Name="p_CO2"  format="ascii">4.5015405947958769e+01  4.5014449721407736e+01  4.5015220428348030e+01  4.5019634446859449e+01  4.5018466543781557e+01  4.5022675869176695e+01  4.5000518560549132e+01  4.4999547335404870e+01  4.5005469515441320e+01  4.5009014279755426e+01  4.5004371394972836e+01  4.5032714593569182e+01  4.5027170491404782e+01  4.5017569621875026e+01  4.5250218040606136e+01  4.5110816916425293e+01  4.5038155947569237e+01  4.5075596295448932e+01  4.4997664636811436e+01  4.5003169490483408e+01  4.4998853423446945e+01  4.5001081178007354e+01  4.5001687240921129e+01  4.5006225858961386e+01  4.5007451751074711e+01  4.5003278459128389e+01  4.5002353772948837e+01  4.5000526875879238e+01  4.5000536247267441e+01  4.5002886648175227e+01  4.5012315657090561e+01  4.5007033354188266e+01  4.5010787047641664e+01  4.5012142872064999e+01  4.5005079494374307e+01  4.5007502937598282e+01  4.5007552527714218e+01  4.5008048061584141e+01  4.5000018165527642e+01  4.5002964515017069e+01  4.5000702399356292e+01  4.5001173645787681e+01  4.5003218352407664e+01  4.4999504079027098e+01  4.4999960705088967e+01  4.4998600044654935e+01  4.5005821778455896e+01  4.5004466721177671e+01  4.5004903418283618e+01  4.5008573755324498e+01  4.5016458851884551e+01  4.5005891188279726e+01  4.5003753585894117e+01  4.5003767842665688e+01  4.5004860612357525e+01  4.5005228713229087e+01  4.5005327662610242e+01  4.5000695672738409e+01  4.5001762551925303e+01  4.5002073223657710e+01  4.5002560557452988e+01  4.5003875142570415e+01  4.5004122901380583e+01  4.5007459351290663e+01  4.5002638908142622e+01  4.4998021246906021e+01  4.5000282230459483e+01  4.4998960082887365e+01  4.5002454649898780e+01  4.5000667640351764e+01  4.5012701663227567e+01  4.5003456605927681e+01  4.5021718308946802e+01  4.5025790230025308e+01  4.5044189013866280e+01  4.5024103502093958e+01  4.5027030253709952e+01  4.5039027216496422e+01  4.5028688550495659e+01  4.5052301066496263e+01  4.5073125347384476e+01  4.5022553642392253e+01  4.5015319069452289e+01  4.5011778664908434e+01  4.5009013124597232e+01  4.5013160170608494e+01  4.5013096173414972e+01  4.5009625247329389e+01  4.5003504926664256e+01  4.5002767693349661e+01  4.5003480963641969e+01  4.5003783973397695e+01  4.5004843891929646e+01  4.5013627741085038e+01  4.5007921606846629e+01  4.5010302992381639e+01  4.5006479747816201e+01  4.5000401759965413e+01  4.5002305323588423e+01  4.5004780098570428e+01  4.5006444522794034e+01  4.5003735275762956e+01  4.5003535966375402e+01  4.5008036722983626e+01  4.5006518407019513e+01  4.5008685845434670e+01  4.5003531410576727e+01  4.5000401403468828e+01  4.5001385183510280e+01  4.5004382227233442e+01  4.4999711666918031e+01  4.5004217938184844e+01  4.5011867813053470e+01  4.5009850603855192e+01  4.5003234733883218e+01  4.5000688968626108e+01  4.5003513142420658e+01  4.5035572773166756e+01  4.5032241904446686e+01  4.5031723746261122e+01  4.5039233600607965e+01  4.5038366866035354e+01  4.5033662555400952e+01  4.5032607828818755e+01  4.5028690571181635e+01  4.5029575234626662e+01  4.5029927079945338e+01  4.5005779309540273e+01  4.5018733741725981e+01  4.5009774613523895e+01  4.5021091031364598e+01  4.5010866612870991e+01  4.5019372777515613e+01  4.4994644870417133e+01  4.4997517695054036e+01  4.5002866814453434e+01  4.5000310564263899e+01  4.5001285003275768e+01  4.5000127284456227e+01  4.5000661793474592e+01  4.5001810812907834e+01  4.4995952956927141e+01  4.4997708541164947e+01  4.5004471250847331e+01  4.5006804226087752e+01  4.5011860618786336e+01  4.5008524506819967e+01  4.5008194186736702e+01  4.5001551167710247e+01  4.5004544800980099e+01  4.5003441017963809e+01  4.5010829788605825e+01  4.5012645869680746e+01  4.5043621166744508e+01  4.5001800267472355e+01  4.5001065203686224e+01  4.5001105213539560e+01  4.5001424269815523e+01  4.4997431576596739e+01  4.5000107160045452e+01  4.5000606156674621e+01  4.4999575652914750e+01  4.5003244440140250e+01  4.5002649424314903e+01  4.5002631103389589e+01  4.5001166311841232e+01  4.4999102922216160e+01  4.4996874634901417e+01  4.5000942115541875e+01  4.5008518458011501e+01  4.5007587449537333e+01  4.5009883325423459e+01  4.5010187281443045e+01  4.5007609104487784e+01  4.5017970209088126e+01  4.5024939156206159e+01  4.5026613026519897e+01  4.5109174898688842e+01  4.5041336262241693e+01  4.5062427566905363e+01  4.5043145712974066e+01  4.5023377481673236e+01  4.5000888457341617e+01  4.5009103184589193e+01  4.5001622003716150e+01  4.4996514032285816e+01  4.5003425117368430e+01  4.5002622075611008e+01  4.4999334130359372e+01  4.5002139840963906e+01  4.5001743565248418e+01  4.5002012904335608e+01  4.4991738971766971e+01  4.4998554181723641e+01  4.5004467403297213e+01  4.4991570403471947e+01  4.5001162638799542e+01  4.5005254449168760e+01  4.5002182717737938e+01  4.5002109910423911e+01  4.5003888646992131e+01  4.5001696081738402e+01  4.5002275235656228e+01  4.5013729006906054e+01  4.5012756268102258e+01  4.5023169323010919e+01  4.5018185221821881e+01  4.5020980666977422e+01  4.5021984607131195e+01  4.5027178917362171e+01  4.5032444054228492e+01  4.5034489924189174e+01  4.5042191622600647e+01  4.5054608487010704e+01  4.5044492092745223e+01  4.5045535901077884e+01  4.5069982943940019e+01  4.4999125782710060e+01  4.4999633448144486e+01  4.5016290910374465e+01  4.5003086520157716e+01  4.5002153111387123e+01  4.5001523552683750e+01  4.4991269903979187e+01  4.4996980193411638e+01  4.5315036980785898e+01  4.5304146457315206e+01  4.5046285057855293e+01  4.5096197844893283e+01  4.5022618222256362e+01  4.5022721901779143e+01  4.5028844739941277e+01  4.5098781270072479e+01  4.5026798882483604e+01  4.5024550408219341e+01  4.5033082719411489e+01  4.5026232190143041e+01  4.5037564970097399e+01  4.5053808831632011e+01  4.5025787079886818e+01  4.4999791469241927e+01  4.5001038965864787e+01  4.5007028755138634e+01  4.4999167862369333e+01  4.5002366619227821e+01  4.5000935935246716e+01  4.5001530842894908e+01  4.4998207095455349e+01  4.4999151807955954e+01  4.5000690026102014e+01  4.5001101376423613e+01  4.5000611238266828e+01  4.5000305321992869e+01  4.5000646805695489e+01  4.5000205797784005e+01  4.4998227431186230e+01  4.4999790357953131e+01  4.4998561801956399e+01  4.4998553488217937e+01  4.5070839598820797e+01  4.5043151476000936e+01  4.5046375659407403e+01  4.5050472939604660e+01  4.5064821469554694e+01  4.5055349867795663e+01  4.5043081993952605e+01  4.5037575171216474e+01  4.5037762012765263e+01  4.5035318767508677e+01  4.4998942247558197e+01  4.5004190054093705e+01  4.5000761412101248e+01  4.5000438193538869e+01  4.5025485806826339e+01  4.5038742790965571e+01  4.5030370241336769e+01  4.5044387171500134e+01  4.5029481161627402e+01  4.5088090274886582e+01  4.5036480281555477e+01  4.5065446469327853e+01  4.5038172090346777e+01  4.5030682091982705e+01  4.5004091625497701e+01  4.5001523464027024e+01  4.5004132811737108e+01  4.4998245733395834e+01  4.4999699444474544e+01  4.5003976437737400e+01  4.5003006433934900e+01  4.5020123538124075e+01  4.5002505301767613e+01  4.5001142942917753e+01  4.5000703235519708e+01  4.5004559250241321e+01  4.5000196227884452e+01  4.5000663346589235e+01  4.5000122648256969e+01  4.5001555068958432e+01  4.5002894849644782e+01  4.4999578662515574e+01  4.4997455461543716e+01  4.5000552107900653e+01  4.5000753530176503e+01  4.5002331544720079e+01  4.5001347136633846e+01  4.5001827849328777e+01  4.4999466124166169e+01  4.5000274006762965e+01  4.4999927702003831e+01  4.5000873360593623e+01  4.4999275049745890e+01  4.5001220419059230e+01  4.4999532292949233e+01  4.5000297069799807e+01  4.5000652688983763e+01  4.4996042463707894e+01  4.5000108173051771e+01  4.5000774161785095e+01  4.4998980550288614e+01  4.5000250324894658e+01  4.5000347568522372e+01  4.4997097729799165e+01  4.5022792757449032e+01  4.5031348736349273e+01  4.5048300838154816e+01  4.5000291298477158e+01  4.5000029075818269e+01  4.5000053247613096e+01  4.4999005880690476e+01  4.5001824674430438e+01  4.5001364125931879e+01  4.4998956508539926e+01  4.4999591824350937e+01  4.4999618217114943e+01  4.4993008614738372e+01  4.5001477797887169e+01  4.4999570215872296e+01  4.4994769067028898e+01  4.4999990605603863e+01  4.5000763890864427e+01  4.4999233822201660e+01  4.5000503671721198e+01  4.5000684136037343e+01  4.5001973114055417e+01  4.5003759896304899e+01  4.5014782693513354e+01  4.5011372938542564e+01  4.4999271147324066e+01  4.4998727651981540e+01  4.5008422550793526e+01  4.5006511769357118e+01  4.4998893404768822e+01  4.4998933257318789e+01  4.5000597045098075e+01  4.5001463407183408e+01  4.5005950373454603e+01  4.5005748424068024e+01  4.5015384083958594e+01  4.5015050197913112e+01  4.5008079468462100e+01  4.5004080825602131e+01  4.4998807122218402e+01  4.5006132930832301e+01  4.5000855654906331e+01  4.5002228669073354e+01  4.5000670486655743e+01  4.5023345135213795e+01  4.5022680191542896e+01  4.5039061164344055e+01  4.5032664277302871e+01  4.5029622317485767e+01  4.5000737842995811e+01  4.5000142108879203e+01  4.5000506533709689e+01  4.4999814606495740e+01  4.4999346046673104e+01  4.5000691744053832e+01  4.5000283288201182e+01  4.4998540850728489e+01  4.5002191612475514e+01  4.4996082976856876e+01  4.5006442640913491e+01  4.5003355637445893e+01  4.5002875900409457e+01  4.5003269149850389e+01  4.5006367623454999e+01  4.5002546517525339e+01  4.5007440666747733e+01  4.5005728357329026e+01  4.4998917647575617e+01  4.4998478032298870e+01  4.4999670149869509e+01  4.4998553468040498e+01  4.4998667713739472e+01  4.4999241090512008e+01  4.5000116912987444e+01  4.5001863460376882e+01  4.5001009402954381e+01  4.5005723942290764e+01  4.5002939333125809e+01  4.5005716030034378e+01  4.5003779925428084e+01  4.5002905799142461e+01  4.5006250139509874e+01  4.5077247196515877e+01  4.5015068831145975e+01  4.5032759752116405e+01  4.5032710405982428e+01  4.5046911744605502e+01  4.5026048975430768e+01  4.5026240975772602e+01  4.5021493932186509e+01  4.4999354432845244e+01  4.5005770539606459e+01  4.4998622220779644e+01  4.5002914325724788e+01  4.5000794415546324e+01  4.5005645118755730e+01  4.5001752449782224e+01  4.5018258898273899e+01  4.5023941438360673e+01  4.5015886768177808e+01  4.5030570308736927e+01  4.5018805478712039e+01  4.5027200805416619e+01  4.5055702553597214e+01  4.5069609668359959e+01  4.5048337951424692e+01  4.5089761084832446e+01  4.5086084910491664e+01  4.5059915925072822e+01  4.5004530872222432e+01  4.5003094084011103e+01  4.5002211045308378e+01  4.5003874941606384e+01  4.5006462244194971e+01  4.5000807194205890e+01  4.5004093848602352e+01  4.5003717267403282e+01  4.4997019050555821e+01  4.5001506419802119e+01  4.5010057796642585e+01  4.5000660250725417e+01  4.5002308987084440e+01  4.5001881433286755e+01  4.5000981493782525e+01  4.4998226049755750e+01  4.4999459193536275e+01  4.5012729939270514e+01  4.5006034651483091e+01  4.5013066707170502e+01  4.5012824172432303e+01  4.5012854403872446e+01  4.5006949385652078e+01  4.5003685082399471e+01  4.5029730372910507e+01  4.5037245339557167e+01  4.5035500766086720e+01  4.5030311954726024e+01  4.5006690268525702e+01  4.5003732750988704e+01  4.4999283879205997e+01  4.5021170353962226e+01  4.5020183764158844e+01  4.5010181025610578e+01  4.5013415447273772e+01  4.5009999281596492e+01  4.5010662913168801e+01  4.5012312517185507e+01  4.5012696674296436e+01  4.5011790685117425e+01  4.5027765224686362e+01  4.5029662818841601e+01  4.5040103518349781e+01  4.5057241150952215e+01  4.5038179387684998e+01  4.5052532687959363e+01  4.5045234514835627e+01  4.5035809051952178e+01  4.5019122598834677e+01  4.5024315682411356e+01  4.5015141890715412e+01  4.5001920316603901e+01  4.5002934287980821e+01  4.4999001664658365e+01  4.5001940480035131e+01  4.5005023570431170e+01  4.5003215257983555e+01  4.5002281225717077e+01  4.5000913008004424e+01  4.5001121977605109e+01  4.5000874477137067e+01  4.4999179272914191e+01  4.5001089293683201e+01  4.5003032341312554e+01  4.5001414690430572e+01  4.5009865694352705e+01  4.5011394829701842e+01  4.5018008318144375e+01  4.5025635139243064e+01  4.5030087730990452e+01  4.5001768368243205e+01  4.5004002706143801e+01  4.5025034376157926e+01  4.5027141764726387e+01  4.5043230211639724e+01  4.5024955628162651e+01  4.5028977408625380e+01  4.5051140697692205e+01  4.5090657723230443e+01  4.5022930280623591e+01  4.5030441659989833e+01  4.5028785518859777e+01  4.4989744084892919e+01  4.5005620709568312e+01  4.5009233020008622e+01  4.5011714533593093e+01  4.5011878072371537e+01  4.5004504813797396e+01  4.5004966989802554e+01  4.5006358546586291e+01  4.5008239088724082e+01  4.5032029996294092e+01  4.5013798381102028e+01  4.5016487243898268e+01  4.5018363005479763e+01  4.5017272222263081e+01  4.5014178431518395e+01  4.5016807045138513e+01  4.5021836045020358e+01  4.5013762735972492e+01  4.5015243393134661e+01  4.5005656452828390e+01  4.5046687075363565e+01  4.5025083105192664e+01  4.5008530359911120e+01  4.5033258179422667e+01  4.5110573707235588e+01  4.5072444620852920e+01  4.5009519231072545e+01  4.5023123827430730e+01  4.5040209387327145e+01  4.5005785155545247e+01  4.5001636212222841e+01  4.5004044014267834e+01  4.5001630087543354e+01  4.5005497995395544e+01  4.5009032263253602e+01  4.5008656328584003e+01  4.5009718987737330e+01  4.5018227083692857e+01  4.5027069917182942e+01  4.5022149999603364e+01  4.5021371810295022e+01  4.5017122850540716e+01  4.5016552629005801e+01  4.5015788107725932e+01  4.5002727801294718e+01  4.5003399463777470e+01  4.5020800839416644e+01  4.5027713893949610e+01  4.5042795295280754e+01  4.5051919632672394e+01  4.5026378906167636e+01  4.5088201124541492e+01  4.5075708963231278e+01  4.5024670983570978e+01  4.5023807138752780e+01  4.5004595314058925e+01  4.5003108815769487e+01  4.5001015952138879e+01  4.5010176176620540e+01  4.5001623106601521e+01  4.5000004617838066e+01  4.4996409336722891e+01  4.5001112091974157e+01  4.4998682887400427e+01  4.5003125432287696e+01  4.5000339072102321e+01  4.5002153579240783e+01  4.5002145973426359e+01  4.5011911952560560e+01  4.5014985905520440e+01  4.5021647187979326e+01  4.5019722108919936e+01  4.5017711539716466e+01  4.5002091680741678e+01  4.5001893711356075e+01  4.4999861965735285e+01  4.5001064487740564e+01  4.5015715850917211e+01  4.5015632301829584e+01  4.5016505464888908e+01  4.5016221186064740e+01  4.5013781564417492e+01  4.5017372395014910e+01  4.5016880780573871e+01  4.5015902594966335e+01  4.5015530649923129e+01  4.5015726806852904e+01  4.5003732644858459e+01  4.5006496596240957e+01  4.5002034095509458e+01  4.5002529897309195e+01  4.4999988396084426e+01  4.5014305096531864e+01  4.4998024353647850e+01  4.5020965713245772e+01  4.5020286516041942e+01  4.5021727033825044e+01  4.5020743727995139e+01  4.5021934709338979e+01  4.5021222939240580e+01  4.5021317474450676e+01  4.5022722856375630e+01  4.5022806594743408e+01  4.5019823267882799e+01  4.5007068128830134e+01  4.5001100848536339e+01  4.4998613664077340e+01  4.5000993500988592e+01  4.4998215355187234e+01  4.5001019582280513e+01  4.5000402590356344e+01  4.4994295452887059e+01  4.4999935312383613e+01  4.5001388263708833e+01  4.5007463406221774e+01  4.5000545370361912e+01  4.5000023069993766e+01  4.5013145992579055e+01  4.5013499516231192e+01  4.5002670988561313e+01  4.5001504596200661e+01  4.5004920660242441e+01  4.5009819078931663e+01  4.5011097444371735e+01  4.5014229832558051e+01  4.5008073392812221e+01  4.5013477083159991e+01  4.5016944926001074e+01  4.5157503299471813e+01  4.5043430531828953e+01  4.5065910976782241e+01  4.5081471654162279e+01  4.5107592590990507e+01  4.5040173984716375e+01  4.5040419321201021e+01  4.5041067415949847e+01  4.5041904408924673e+01  4.5036674306732671e+01  4.5002564953629843e+01  4.5005839182268694e+01  4.5004363328445834e+01  4.5003224409802542e+01  4.5003633917646155e+01  4.5009903577984900e+01  4.5002859943294119e+01  4.4999597980501534e+01  4.5001077997435331e+01  4.5004537499262121e+01  4.5001475330829486e+01  4.5000975629431004e+01  4.5001101983048351e+01  4.5000822726432098e+01  4.4999622754014155e+01  4.5000109682712491e+01  4.5004158912832501e+01  4.5002227543121649e+01  4.5000833428696772e+01  4.5001387259863030e+01  4.5028292604597006e+01  4.5027298753470731e+01  4.5028676083439002e+01  4.5029362165478574e+01  4.5026022186581592e+01  4.5028367035432090e+01  4.5027993838277951e+01  4.5029282705527649e+01  4.4999865049716270e+01  4.4999636159852592e+01  4.5000108440078726e+01  4.4999991648569861e+01  4.5001830605348637e+01  4.4999992304227987e+01  4.5001558049997790e+01  4.4998700369688670e+01  4.5000029777066743e+01  4.5007891459924629e+01  4.5011578067041683e+01  4.5008758569017154e+01  4.5027978590250235e+01  4.5056701747549610e+01  4.5048821366149113e+01  4.5142672982398075e+01  4.5054866499529616e+01  4.5132820347021493e+01  4.5147812388266324e+01  4.5073141842646756e+01  4.5001482872118501e+01  4.4998460676326069e+01  4.5083828595602725e+01  4.5081911192948048e+01  4.5017768178536791e+01  4.5021575606382591e+01  4.5017756609117953e+01  4.5019548822145531e+01  4.5019994231709894e+01  4.5022880398226370e+01  4.5025016222924933e+01  4.5001456445376590e+01  4.4998490799589582e+01  4.5002831261730812e+01  4.4998406875542045e+01  4.5003767873103243e+01  4.5005433616276513e+01  4.5026635833275549e+01  4.5001358955552298e+01  4.4997811539671758e+01  4.5002253402338823e+01  4.5000973158384724e+01  4.5002801979763525e+01  4.5155582774329865e+01  4.5081842521056501e+01  4.5052256381190851e+01  4.5199882043663798e+01  4.5150957047978579e+01  4.5210694926057265e+01  4.5059198102123176e+01  4.5194899354380816e+01  4.5147418267681715e+01  4.5041535274094088e+01  4.5015468917538229e+01  4.5009504698825204e+01  4.5013140156039476e+01  4.5015020545372096e+01  4.4999281107202570e+01  4.5008581868218180e+01  4.5001265727977810e+01  4.5000221239158520e+01  4.5008198076623643e+01  4.5000853166815602e+01  4.5003333625084039e+01  4.5007653186022907e+01  4.5016416797911972e+01  4.5029683769058039e+01  4.5012161144096787e+01  4.5035510481537344e+01  4.5018224049448143e+01  4.5019281846495758e+01  4.5022796642145096e+01  4.5029308869959650e+01  4.5035554075279890e+01  4.5032164040013598e+01  4.5028390228200450e+01  4.5003912120648174e+01  4.5003457641469303e+01  4.5000664884152748e+01  4.5003438996305334e+01  4.4999646447408338e+01  4.5009474624061767e+01  4.5018130942338949e+01  4.5025846523917551e+01  4.4999530247924618e+01  4.5000140904484411e+01  4.5000416022854637e+01  4.4999564107227862e+01  4.4999384499417516e+01  4.5000917383382358e+01  4.5003482618005087e+01  4.5004431465466695e+01  4.5004201246516935e+01  4.5016048040831954e+01  4.5014625731774686e+01  4.5020974781602945e+01  4.5036397665435175e+01  4.5028892739250942e+01  4.5030110258101452e+01  4.5034839502801510e+01  4.5031461918042673e+01  4.4995488471711383e+01  4.4998281466573928e+01  4.5000987517328042e+01  4.5003815515095262e+01  4.4997650232767803e+01  4.4999170589524489e+01  4.5006450189724283e+01  4.5002746338246766e+01  4.5003853124754187e+01  4.5003525249831540e+01  4.4999286116381683e+01  4.5000090299602071e+01  4.5000303789134335e+01  4.4999505646678678e+01  4.4998102241403757e+01  4.5000438037104310e+01  4.4999348415951857e+01  4.5000741519647399e+01  4.4999927100811789e+01  4.5028503276830136e+01  4.5045865266840742e+01  4.5109632434456444e+01  4.5030752753511614e+01  4.5008201339088785e+01  4.5023836398915350e+01  4.5106138229968224e+01  4.5058258826550819e+01  4.4999294500621282e+01  4.5001137193341343e+01  4.4997521373971317e+01  4.5000600828290445e+01  4.5000947487410009e+01  4.4999147070014025e+01  4.5007650326722960e+01  4.5006627414282654e+01  4.5010309507636258e+01  4.5007780590456719e+01  4.5002054886972417e+01  4.5001546685207039e+01  4.5000964930270818e+01  4.4998972373494752e+01  4.5001960975865757e+01  4.5186842665370335e+01  4.5116420363212228e+01  4.5103813434033960e+01  4.5096825334178483e+01  4.5049303604514392e+01  4.5076208630066965e+01  4.506312769835734