<?xml version="1.0"?>
<VTKFile type="UnstructuredGrid"  version="0.1"  >
<UnstructuredGrid>
<Piece  NumberOfPoints="5085" NumberOfCells="21031">
<Points>
<DataArray  type="Float64"  NumberOfComponents="3"  format="ascii">4.124124050140381 0.7161189913749695 26.70215034484863  3.338845014572144 0.09558500349521637 26.64773941040039  3.000479810048755 1.014179511804993 26.18683505348272  3.061164721040992 1.103216606063491 27.21710560724785  4.814870834350586 0.9924589991569519 39.89208984375  5.204606056213379 0.4639959931373596 38.86196899414062  5.153764571086372 1.363555033230949 38.36821259456691  5.780478817358538 1.577516686092104 39.24196304409652  3.106514930725098 0.09558500349521637 24.58004951477051  2.221836090087891 0.09558500349521637 24.1338996887207  1.985139399235706 1.025796627469854 24.63661427257967  2.447232725895193 1.095129799714786 23.72987635038141  3.119940042495728 7.278544902801514 26.59510040283203  3.099049753304223 8.410002825033178 26.47487664698666  2.304414875507706 7.936102918469949 25.79525872985419  1.949142373172263 8.085771720188131 26.88847876049708  3.99950909614563 5.82887601852417 28.87924957275391  3.667519092559814 5.910507202148438 28.16725921630859  3.821820020675659 5.208402156829834 28.38241004943848  3.227171086494382 5.77830603992701 28.69712659730207  3.009126901626587 5.75239896774292 24.29126930236816  2.329974489528505 5.264614845464756 25.09840875529934  2.254455047615822 6.300635338122938 25.13511709512789  2.428060459596307 5.979029706886498 24.01043853249661  2.182970455183949 5.274492594926175 34.16907667609062  1.661652912096198 4.525898799342969 32.80125540439614  1.273020569393846 5.208670520938099 33.11185078860689  1.259774718544242 4.912072176197611 33.48207086966199  0.857896524992287 5.298245553052253 34.16288633492784  1.533679340937721 5.582967418729702 33.79576142445413  0.8711423758418901 5.594843897792741 33.79266625387275  0.8843882266914934 5.89144224253323 33.42244617281765  2.494317054748535 7.035478115081787 34.63919830322266  1.706445547108213 6.431456503514569 34.41598665100517  2.05961968505127 6.538823624803117 35.13920214835372  1.7957575563388 6.812192598273224 35.11297179037162  2.412793822994327 6.646190746091664 35.86241764570227  1.401821802518639 6.510181792489615 35.00136596426287  1.097198057929064 6.588907081464661 35.58674527752057  0.6285139918327332 1.426072955131531 23.25167083740234  1.710109984764338 1.962990205944546 23.63625375220012  0.8279470627462869 2.176832568298337 23.02848725088891  1.082434443252873 1.748744245156275 22.76764708741433  1.536354894673013 2.07141553518102 22.28362333742632  1.36874505921209 2.445291193704845 23.2207787082878  1.027380133659841 2.927592181465144 22.80530366437548  3.463463068008423 7.261737823486328 27.32168960571289  3.076096057891846 6.608516216278076 27.13916969299316  2.522141363587293 7.105923728898722 27.27949595118293  3.219659204328773 7.303579583130829 28.0420866396868  1.451269030570984 3.61749792098999 21.80426025390625  1.447139024734497 3.512012004852295 21.19644927978516  1.48365008124319 2.944012504866021 21.90280588134101  0.7370400321931617 3.395994440028036 21.64950100735018  10.93085956573486 4.370061874389648 39.89208984375  11.16742724019976 3.97964049027608 39.28060674956335  11.876165220305 4.82062062118814 39.0283585141974  10.96912282233438 4.966600219866002 38.60192971144155  3.128592014312744 2.546288013458252 27.06487083435059  1.980536636813951 1.37988012154011 27.42311668641668  2.217710229212752 2.273832016863338 28.55500302016037  2.031481869550586 2.354311916248526 27.64971177426889  2.08242710228722 3.328743710956942 27.87630686212112  0.09939099848270416 4.211494922637939 24.34446907043457  0.09939099848270416 3.167354106903076 24.45528030395508  1.006174061665693 3.369728197834423 24.78457793542211  0.5527825300741988 3.371250564943518 24.23614864025744  0.09939099848270416 3.792133927345276 24.01609420776367  0.09939099848270416 3.270063519477844 24.07149982452393  0.09939099848270416 3.372772932052612 23.68771934509277  0.09939099848270416 6.433143138885498 25.57453918457031  0.4561868198860979 6.191995039351483 25.00372412790764  0.4561868198860979 6.550100221999188 25.3406534491967  0.09939099848270416 6.501901149749756 25.17013454437256  0.09939099848270416 6.075037956237793 25.23760986328125  0.09939099848270416 6.570659160614014 24.7657299041748  0.4561868198860979 6.618858232863446 24.93624880899895  0.09939099848270416 6.143795967102051 24.8332052230835  0.09939099848270416 5.716932773590088 24.90068054199219  0.8129826412894916 6.667057305112879 25.10676771382309  0.09939099848270416 5.556319236755371 37.54858016967773  0.4799801247462784 5.432189097985981 36.90937595732946  0.7025909991609365 5.146847939764413 37.44196228207363  0.4799801247462784 5.724464288339375 37.28620128997106  0.09939099848270416 5.264044046401978 37.17175483703613  0.09939099848270416 4.971768856048584 36.79492950439453  0.7025909991609365 4.85457274941102 37.06513694943203  0.8605692510098527 5.892609339923378 37.02382241026438  1.305790999839169 4.737376642773454 37.33534439446953  0.09939099848270416 4.7658371925354 32.55303955078125  0.09939099848270416 3.698010921478271 32.82863998413086  0.8805219552894511 4.11195486041062 32.81494769426349  0.8805219552894511 4.505857877454687 33.22904261919025  0.09939099848270416 4.091913938522339 33.24273490905762  0.8805219552894511 4.645867995939184 32.67714747758869  0.09939099848270416 4.625827074050903 33.10493469238281  0.09939099848270416 4.485816955566406 33.65682983398438  0.09939099848270416 6.825026035308838 37.90774917602539  0.4411513018880237 6.26453892106966 37.96010619888183  0.6484347912941325 6.493204272937335 38.36663657913086  0.4411513018880237 6.636163867663898 37.86421615371582  0.09939099848270416 6.4534010887146 38.00363922119141  0.306674487888813 6.682066440582275 38.41016960144043  0.5139579772949219 6.539106845855713 38.91259002685547  0.306674487888813 6.310441493988037 38.50605964660645  0.09939099848270416 6.081776142120361 38.09952926635742  0.7829116052933431 6.447301700018959 37.82068313140624  1.139879941940308 0.4485709965229034 18.85972023010254  1.911203522371786 1.147077443575878 18.48274315468601  1.482485497252692 0.7158353776036541 18.28994135110021  1.079935074077063 0.9558743699809764 18.72973159444146  1.568597967059401 0.879813062495127 19.05252203368833  1.997315992178495 1.311055128467351 19.24532383727413  1.019990206213819 1.463177743439049 18.59974295878038  1.825091052565076 0.9830997586844048 17.72016247209788  2.009077015632744 5.699370162861536 36.38360051848785  2.562000360606319 5.87759974529952 35.2410887587764  1.829599209267692 6.233253413382091 35.41391701814848  1.319012045860291 10.679030418396 26.75324058532715  0.8877410292625427 10.72128009796143 26.11556053161621  1.767426786310013 9.891699964194689 26.42702044716987  2.213910684326126 10.69827179655648 26.4645108042612  8.101378440856934 5.621916770935059 39.89208984375  8.022754574281242 6.146299240086456 38.54947679903972  9.116339797866541 5.789665963820212 38.62260592495539  9.215013564692764 6.110230456966688 39.38243462720418  0.09939099848270416 1.832329034805298 35.63484954833984  0.4931679964065552 1.180174946784973 35.89188003540039  1.109835245124949 2.094183650119534 35.35647023458824  0.5613705877630883 1.902621119366303 36.08165770388692  1.023350177043473 1.972913203927307 36.52846585943399  9.493562515853149 4.99236864580751 39.23262918328422  9.692546587481324 4.95595065221737 37.99829466401373  10.38650628002468 4.518362675374394 39.04348137407528  9.514745764148927 4.12992790972624 38.46124329069274  0.6156569719314575 4.887494087219238 39.16093826293945  0.5969409942626953 4.136788845062256 39.02326965332031  1.074798035485914 4.462942883438306 39.25584008098238  0.8951804637908936 4.529570579528809 39.52651405334473  1.17470395565033 4.171647071838379 39.89208984375  1.533939099040371 4.038391679657374 39.35074189902532  9.703889846801758 1.345680952072144 39.89208984375  10.66987037658691 1.347229957580566 39.89208984375  10.18741035461426 0.6393499970436096 39.28992080688477  10.58445912324155 1.308392248389076 38.9050606527457  1.250434994697571 9.924673080444336 28.26721954345703  0.7781749963760376 9.335227012634277 28.58189010620117  1.201098638088644 9.32827832712476 28.03438309581492  1.512660245344356 9.345467211595682 28.32534740283345  2.247145494312674 9.355707410557089 28.06880469946572  1.62402227980125 9.321329641615245 27.48687608542868  3.479269981384277 6.581090927124023 27.8142204284668  2.171935293046726 6.42195682597893 27.94351599321239  5.266490936279297 5.529362201690674 39.89208984375  4.597837924957275 5.341020107269287 39.89208984375  4.923162787501044 6.298934352797565 39.2311469318826  5.451120684178152 5.524120484376627 39.16610121462381  0.6970660090446472 0.7186239957809448 25.65836906433105  0.9547250270843506 0.5729389786720276 26.27786064147949  1.267420053482056 0.09558500349521637 25.40789031982422  1.787205138047681 1.072648391551976 25.67061973178054  2.447901179708395 9.177701677475424 24.20913042451975  3.612687360852997 8.941435230455628 23.69183074984281  3.235501540218397 10.56666992792847 23.29604495949402  2.928021961340147 10.13235443413357 24.81804905315963  1.508831788672688 4.011593173529971 34.13924428369517  1.183364156832488 4.654919363291112 34.15106530931151  3.672585010528564 2.506094932556152 24.80652046203613  4.517693996429443 2.292212009429932 24.29928016662598  4.416872024536133 1.791759967803955 24.95968055725098  3.43810092584664 1.195516984904372 24.08071050901565  2.944684982299805 5.327449798583984 23.69564056396484  2.618329048156738 5.549763202667236 23.07445907592773  1.848881622230782 5.802176479528954 23.46612996225625  4.305378207879661 5.483367377710485 38.1084029229099  5.469202186667746 6.405131591302475 38.25169236314319  4.160983523566893 6.256933676539746 39.08125142755379  3.471894979476929 5.4
[...]
<PointData  Scalars="p_CO2"> 
<DataArray  type="Float64"  Name="p_CO2"  format="ascii">4.4908244488649672e+01  4.5005484942060896e+01  4.5068630689160251e+01  4.4994233067404153e+01  4.4972932167498122e+01  4.4995228047279952e+01  4.4969262307939232e+01  4.5004139549917724e+01  4.5000806509937163e+01  4.4984024490646540e+01  4.4974086370408251e+01  4.5022045409823043e+01  4.5000712355461850e+01  4.5011754229216358e+01  4.5005293904810536e+01  4.4998197190633718e+01  4.4997515433198281e+01  4.5004960757788631e+01  4.4995733110071889e+01  4.4990230117799797e+01  4.4975769969604308e+01  4.5014132171930868e+01  4.4984778707269626e+01  4.4986421210455212e+01  4.4983038256829389e+01  4.5000943398640437e+01  4.4990865147990789e+01  4.4984195395168982e+01  4.4995192588688269e+01  4.4987102702305080e+01  4.4996591001405157e+01  4.4996618771157095e+01  4.5024532820958022e+01  4.4982006438134050e+01  4.5019104780967545e+01  4.5011373434661500e+01  4.5001806863009421e+01  4.4987956185521618e+01  4.4989706073722637e+01  4.4987740049647229e+01  4.4982669010759324e+01  4.4999184267573902e+01  4.4994017544672509e+01  4.4996223642130118e+01  4.4985798974494251e+01  4.5015571907122236e+01  4.4993839067237928e+01  4.5005389471744706e+01  4.5002454601817696e+01  4.4990932294108624e+01  4.5047954104966543e+01  4.5027420089227071e+01  4.4986255618944661e+01  4.4961590690572244e+01  4.5001932089559752e+01  4.4997955764450388e+01  4.5017559889276555e+01  4.5003858439852912e+01  4.4998531159911764e+01  4.5022288692876280e+01  4.4990574640547990e+01  4.4999298583728738e+01  4.4975953181926997e+01  4.5000000000000000e+01  4.5000000000000000e+01  4.5010153218349281e+01  4.5001854431610433e+01  4.5000000000000000e+01  4.5000000000000000e+01  4.5000000000000000e+01  4.5000000000000000e+01  4.4998982145771926e+01  4.4997631829660698e+01  4.5000000000000000e+01  4.5000000000000000e+01  4.5000000000000000e+01  4.4998748694070898e+01  4.5000000000000000e+01  4.5000000000000000e+01  4.4997558823946207e+01  4.5000000000000000e+01  4.5002316194211502e+01  4.4999034049327733e+01  4.5003478925544648e+01  4.5000000000000000e+01  4.5000000000000000e+01  4.4999313451912549e+01  4.4998493199525427e+01  4.4998904148981339e+01  4.5000000000000000e+01  4.5000000000000000e+01  4.5002992878844999e+01  4.4997664721577188e+01  4.5000000000000000e+01  4.5001515518725277e+01  4.5000000000000000e+01  4.5000000000000000e+01  4.5000000000000000e+01  4.4999351581038859e+01  4.5006520629589076e+01  4.4996576455108091e+01  4.5000000000000000e+01  4.4998022227151722e+01  4.5000165900198752e+01  4.4997457540380232e+01  4.5000000000000000e+01  4.5000859707991545e+01  4.4997417494561205e+01  4.4999532898303514e+01  4.4999990236554098e+01  4.4996747796681547e+01  4.4999663931964896e+01  4.4999218518389839e+01  4.5004002810369805e+01  4.4991092054579127e+01  4.5003472138141831e+01  4.5011813505505373e+01  4.4989197336171294e+01  4.4996860095015556e+01  4.5025019965972618e+01  4.4988150671155047e+01  4.4973634670392819e+01  4.4992229010963449e+01  4.5015960469974488e+01  4.4996345569398194e+01  4.5006268418260426e+01  4.5000000000000000e+01  4.4975449828196581e+01  4.5010440677791721e+01  4.5019949716077349e+01  4.4999230164102826e+01  4.4990516124737574e+01  4.5024238279553224e+01  4.5007676183665431e+01  4.5025107740324358e+01  4.5003985830131306e+01  4.4993427812879162e+01  4.5006770348048477e+01  4.4996052207176376e+01  4.5001226212366873e+01  4.4992979347097041e+01  4.4981644581983289e+01  4.5012981700071386e+01  4.4992522470764762e+01  4.4983856022266117e+01  4.5011204343727194e+01  4.5001430367805199e+01  4.5006288740815783e+01  4.5020980499759020e+01  4.5000936108860500e+01  4.4996125131619159e+01  4.5005666490506805e+01  4.4998221605706128e+01  4.5012932201181364e+01  4.4997897833352859e+01  4.4976163343416943e+01  4.5013637915803706e+01  4.5001063394864794e+01  4.5004878909095567e+01  4.5004162993820167e+01  4.4995810739764387e+01  4.5011602856961140e+01  4.5024840401746260e+01  4.4987588115097999e+01  4.5006110833903456e+01  4.4978323060170347e+01  4.4996680122504252e+01  4.4976437585675086e+01  4.4999449369445273e+01  4.5002673801983015e+01  4.4981443918591154e+01  4.4977880778776942e+01  4.4974143466449540e+01  4.4999084046347662e+01  4.5004765656402640e+01  4.4986344577843568e+01  4.5010101906614615e+01  4.4979834307940159e+01  4.5020301762999004e+01  4.5014244623415074e+01  4.4996271909107975e+01  4.5003956730251645e+01  4.4994274545911928e+01  4.5000663457677831e+01  4.4998464472604120e+01  4.5008183024311123e+01  4.4995246054493094e+01  4.4979910819672867e+01  4.4991565588543693e+01  4.5023918772136241e+01  4.5015084079433066e+01  4.5010177927906859e+01  4.4998988607593908e+01  4.5001464591148448e+01  4.5004945809441935e+01  4.4995774501221874e+01  4.5008568452539663e+01  4.4999457842212692e+01  4.5000000000000000e+01  4.5000000000000000e+01  4.5000740145966937e+01  4.5000554579594024e+01  4.5000000000000000e+01  4.5000000000000000e+01  4.4993553286493217e+01  4.4990277621179978e+01  4.5002963539054647e+01  4.4989902361332192e+01  4.4997913766405453e+01  4.4994438969626366e+01  4.5001099340493774e+01  4.4983955829720443e+01  4.4989446094817872e+01  4.4970845468245720e+01  4.5117930193892683e+01  4.4994300634608095e+01  4.4940187576096726e+01  4.5005794374938887e+01  4.4998661705904844e+01  4.5004515454022517e+01  4.4979767977748153e+01  4.5000000000000000e+01  4.5000000000000000e+01  4.5008839539811859e+01  4.5000000000000000e+01  4.4988615985692213e+01  4.5007702013913821e+01  4.5000000000000000e+01  4.4982914485642205e+01  4.4988460074485602e+01  4.4994434360998135e+01  4.4995298621567663e+01  4.5000236441319615e+01  4.4966282765026129e+01  4.5010844730316592e+01  4.5020636438455398e+01  4.5006507787899686e+01  4.5000000000000000e+01  4.4999540784285308e+01  4.5000000000000000e+01  4.5000000000000000e+01  4.5000000000000000e+01  4.4998990492558534e+01  4.5000000000000000e+01  4.4999442533281211e+01  4.5000000000000000e+01  4.4999212432574275e+01  4.5012752449755389e+01  4.5001384014039616e+01  4.4983524486463494e+01  4.4996943889303687e+01  4.5005188449126543e+01  4.4999400146913935e+01  4.5000929413484556e+01  4.4999953609957636e+01  4.5000939982268527e+01  4.5022372583702982e+01  4.4995861959252196e+01  4.4997887695552222e+01  4.4996929996924010e+01  4.4997479365685145e+01  4.4994250458647336e+01  4.5002562677522988e+01  4.4999662307892663e+01  4.5016823600110357e+01  4.5014496508897309e+01  4.5000992603414772e+01  4.5002533630149848e+01  4.5007721089446648e+01  4.5000000000000000e+01  4.5005129240890241e+01  4.4998006330489375e+01  4.4994161251888137e+01  4.4999239654680160e+01  4.4992553148734309e+01  4.4999160749019445e+01  4.5001086829597490e+01  4.5014677169453869e+01  4.4995392858514975e+01  4.4998546443285264e+01  4.5001699479326746e+01  4.5001232769954640e+01  4.5003408288705828e+01  4.5002717093382707e+01  4.4995988715903330e+01  4.4999448523243480e+01  4.5000390494514157e+01  4.5004488289844986e+01  4.5000000000000000e+01  4.4998381398163843e+01  4.4998144790779222e+01  4.4999886787387403e+01  4.5000000000000000e+01  4.5000000000000000e+01  4.4993889510236173e+01  4.4998053783098115e+01  4.4996574209906427e+01  4.4993141688609036e+01  4.5000000000000000e+01  4.4996751396888328e+01  4.4996948288836151e+01  4.5000000000000000e+01  4.4999469733497378e+01  4.5000000000000000e+01  4.4997739834235290e+01  4.4995228771273652e+01  4.4996201489542187e+01  4.5008701394466975e+01  4.4996600844104606e+01  4.4993052307093727e+01  4.4995156566946584e+01  4.5002456005478344e+01  4.4668869267437060e+01  4.5055031762006472e+01  4.5009481118136456e+01  4.5013397703900992e+01  4.4991148497955514e+01  4.4994500688603324e+01  4.4998342989200552e+01  4.4996641436528868e+01  4.4996501553539581e+01  4.5000332619503418e+01  4.5006513850052151e+01  4.5005274657942302e+01  4.4987827849756400e+01  4.5001316537790601e+01  4.4997546721361616e+01  4.5000546099488275e+01  4.5000839994271168e+01  4.5000000000000000e+01  4.5000000000000000e+01  4.4993011923790974e+01  4.5008393628766655e+01  4.4999860976856944e+01  4.4979561188591155e+01  4.5011702509245765e+01  4.5006352929777904e+01  4.5000514805293811e+01  4.5089081445288528e+01  4.4969043207052273e+01  4.4976422796344693e+01  4.4998175221745619e+01  4.4997986144960464e+01  4.5002993059269613e+01  4.5006317910069058e+01  4.4993029814779717e+01  4.4994119990747024e+01  4.4994212789304044e+01  4.5001988473440399e+01  4.5002584777265817e+01  4.4995660825602634e+01  4.4987322028834377e+01  4.5004942892278102e+01  4.4994802834154029e+01  4.4981165253871112e+01  4.5027066629169994e+01  4.4995769609610107e+01  4.5009093265188895e+01  4.5011677706209575e+01  4.4957627792928896e+01  4.5038312727322101e+01  4.5021322593628298e+01  4.4985424897607743e+01  4.4988835910035398e+01  4.4980784989255447e+01  4.4988917094454571e+01  4.4970539024771320e+01  4.4994227153894883e+01  4.4995798588428400e+01  4.5007242488163811e+01  4.5000000000000000e+01  4.5000532416486159e+01  4.5000158013584063e+01  4.5000000000000000e+01  4.5000000000000000e+01  4.5000000000000000e+01  4.5000069618264739e+01  4.5000000000000000e+01  4.5000000000000000e+01  4.5001857301153031e+01  4.4999972302417468e+01  4.4984558392217139e+01  4.4995778771939420e+01  4.5019664510595213e+01  4.4968765781896053e+01  4.4998304282710961e+01  4.5018557246061391e+01  4.5026775700731640e+01  4.5002269777532312e+01  4.4998988374539451e+01  4.5000728713597624e+01  4.5024052358824711e+01  4.5008497108401748e+01  4.4954325730765497e+01  4.4995002213272663e+01  4.4999750754746316e+01  4.5000000000000000e+01  4.4988803829952857e+01  4.5005147084052936e+01  4.5000000000000000e+01  4.5000000000000000e+01  4.5000000000000000e+01  4.5001367525886266e+01  4.5000000000000000e+01  4.5000000000000000e+01  4.5030816695943429e+01  4.4999901259992214e+01  4.4993709834559453e+01  4.5011836294269152e+01  4.4987211702646640e+01  4.5000975228896003e+01  4.5000944386388376e+01  4.5018996618241040e+01  4.4998112577230437e+01  4.5005000373969601e+01  4.4970812131162454e+01  4.5000058066815612e+01  4.4978468204525413e+01  4.4991244691618810e+01  4.5042033699668956e+01  4.5016843960413631e+01  4.4999942554978496e+01  4.4970804139299410e+01  4.4995314148427177e+01  4.5012373716818999e+01  4.4985170557445691e+01  4.5001900599596986e+01  4.4993158798685521e+01  4.5007147227898479e+01  4.5000000000000000e+01  4.4999977914226974e+01  4.5002988147683013e+01  4.5000000000000000e+01  4.5000000000000000e+01  4.5000000000000000e+01  4.4998284280842689e+01  4.4996717482501801e+01  4.4999331771026483e+01  4.5000000000000000e+01  4.4999856216339744e+01  4.5000000000000000e+01  4.5000000000000000e+01  4.4999039060968819e+01  4.5000000000000000e+01  4.4966125126877621e+01  4.4962508367447654e+01  4.5068425600706448e+01  4.4949742745517689e+01  4.5009414121737251e+01  4.4999135823891088e+01  4.5000637232197448e+01  4.4996117510194345e+01  4.5007931706031570e+01  4.4999794530090206e+01  4.5002921211883532e+01  4.4999211252078901e+01  4.4997538225843229e+01  4.4999671507316883e+01  4.5000368062047528e+01  4.4995583617865684e+01  4.4989392644830566e+01  4.5000000000000000e+01  4.4989253430423155e+01  4.4979644494826395e+01  4.4995362668474620e+01  4.4992731233670767e+01  4.4994968059964847e+01  4.4994639847617286e+01  4.4991800868855584e+01  4.5000000000000000e+01  4.4996488152242094e+01  4.5001650870112378e+01  4.5000000000000000e+01  4.4991721371305552e+01  4.4986292975015104e+01  4.5016306671781969e+01  4.5006998995004885e+01  4.5010035840944468e+01  4.5125838405413816e+01  4.5043763502039788e+01  4.5021192210406916e+01  4.5000000000000000e+01  4.5002281767180115e+01  4.4987919923963545e+01  4.5007737540754960e+01  4.5001750782494277e+01  4.5016257692093980e+01  4.4982825045895105e+01  4.4991112377063544e+01  4.4994782250755620e+01  4.5014001461063977e+01  4.5001598576879296e+01  4.4997127362178226e+01  4.5000892411170597e+01  4.4991100331620515e+01  4.5000202967340492e+01  4.4998118064282131e+01  4.4991203312119481e+01  4.4999893772530157e+01  4.5003872290011472e+01  4.5000000000000000e+01  4.4996429941423287e+01  4.5000000000000000e+01  4.4989288071339999e+01  4.4997501809167616e+01  4.5010728694533334e+01  4.5007813334787137e+01  4.4995830075896386e+01  4.4991177059124766e+01  4.4990000646438887e+01  4.4986300762139386e+01  4.4999610402121256e+01  4.5004427323385926e+01  4.4992953354990071e+01  4.4986830309998673e+01  4.5010913041546182e+01  4.4990763794233011e+01  4.5016150232171533e+01  4.4989801347153481e+01  4.5000000000000000e+01  4.5000000000000000e+01  4.4976940824916639e+01  4.5010768234450978e+01  4.4997698075031323e+01  4.5010829671013198e+01  4.4987266595716655e+01  4.5012448072767519e+01  4.5010440814186417e+01  4.5000000000000000e+01  4.5000000000000000e+01  4.5000000000000000e+01  4.4990833378923440e+01  4.5001390899489088e+01  4.4980853068664842e+01  4.5000000000000000e+01  4.4998757468449234e+01  4.4997571041259221e+01  4.5000000000000000e+01  4.4998572928645387e+01  4.4996232559667369e+01  4.4996774171214703e+01  4.5027578969049806e+01  4.4982141878301370e+01  4.5011474359445643e+01  4.4983949143134531e+01  4.4997841391511223e+01  4.5018221807354720e+01  4.5002168993933637e+01  4.4997557404633099e+01  4.5000472585942262e+01  4.4999742351621599e+01  4.4998846888223589e+01  4.5005542377293636e+01  4.5016207027168718e+01  4.4994568196741831e+01  4.5005366837232231e+01  4.4990836841049109e+01  4.5009701498884873e+01  4.5004566885808302e+01  4.5005372518008073e+01  4.4997176806918006e+01  4.5000942168694792e+01  4.5029275275793829e+01  4.5001858584747616e+01  4.5049208175492268e+01  4.5013490658075867e+01  4.4969128070000195e+01  4.4998545470012161e+01  4.4998381790077758e+01  4.4969640778428563e+01  4.4996595211331865e+01  4.4997190806541326e+01  4.4998597732563148e+01  4.4999783727225534e+01  4.5000069094512156e+01  4.4992784049774833e+01  4.5017396825992108e+01  4.5003475767306234e+01  4.4999942924640216e+01  4.4993991039887895e+01  4.5002281294482763e+01  4.4980478510097292e+01  4.5017942725912896e+01  4.4982568975896527e+01  4.5002265482991788e+01  4.4993868073275188e+01  4.5004832708994734e+01  4.5003979954703603e+01  4.5000532889156673e+01  4.5000000000000000e+01  4.5000000000000000e+01  4.4995689484653468e+01  4.5001222505885764e+01  4.5004265142778927e+01  4.4999578442490090e+01  4.5005683060498157e+01  4.4999422982138633e+01  4.5002955472610147e+01  4.5000000000000000e+01  4.4984972692955289e+01  4.5000000000000000e+01  4.5000000000000000e+01  4.5000000000000000e+01  4.4997085838643578e+01  4.5000000000000000e+01  4.5000000000000000e+01  4.5000073160680039e+01  4.4999249007951910e+01  4.5015701614685774e+01  4.4999911796774207e+01  4.4986607689998159e+01  4.4998093413264456e+01  4.4984911812767947e+01  4.4993718543302627e+01  4.4997184952454575e+01  4.5002622325002505e+01  4.4928122306124273e+01  4.5004130225954370e+01  4.5001783123270066e+01  4.5003341506294873e+01  4.5005466236437158e+01  4.4982628777814533e+01  4.4996393394976423e+01  4.4994240957007271e+01  4.4989412876257894e+01  4.5004757380664699e+01  4.4999850403068393e+01  4.5001486871625488e+01  4.4989244529741519e+01  4.4999371871323291e+01  4.5001439584913030e+01  4.4999413421168782e+01  4.4996309257708667e+01  4.5001152439783020e+01  4.5000000000000000e+01  4.5019433214162511e+01  4.5001965931937256e+01  4.5004079141999121e+01  4.5010327820839720e+01  4.5020543613262582e+01  4.5004420368280790e+01  4.5019144275565054e+01  4.4995302635539325e+01  4.4958688044533666e+01  4.4840479335446418e+01  4.4994888681282674e+01  4.5004132514980014e+01  4.5007450115887742e+01  4.4985939653311242e+01  4.4995736895074238e+01  4.5012376034621191e+01  4.4999543829534275e+01  4.4990482190429503e+01  4.5005131815373034e+01  4.5007585310191125e+01  4.4961795234427441e+01  4.5027709307452199e+01  4.4972943694045689e+01  4.5051666763872227e+01  4.4993587055050767e+01  4.4999894560753503e+01  4.4993106640697391e+01  4.4999240466694054e+01  4.4997905021432793e+01  4.4999365336939427e+01  4.5001032223456711e+01  4.5003821315054168e+01  4.5001253490042309e+01  4.4999260132894499e+01  4.5005525646274251e+01  4.5009288223374327e+01  4.4985461381475687e+01  4.5010464434746268e+01  4.4989468263961037e+01  4.4990129785233385e+01  4.4987283984213398e+01  4.5005959558764552e+01  4.5057488126555434e+01  4.5056631155370660e+01  4.5000000000000000e+01  4.4992812451311146e+01  4.5000000000000000e+01  4.4986785210721585e+01  4.5007707930741830e+01  4.4997480354474732e+01  4.5009339367751068e+01  4.5000000000000000e+01  4.4999772301466301e+01  4.4999827146913049e+01  4.5000000000000000e+01  4.5000000000000000e+01  4.5000000000000000e+01  4.4976893980159190e+01  4.5004961773674495e+01  4.5007942073310637e+01  4.4994123445642302e+01  4.5001786494340571e+01  4.4983581118274650e+01  4.5000776771102551e+01  4.5015197739510640e+01  4.4974710945229596e+01  4.4962656986901358e+01  4.5000136656593035e+01  4.4978396708210362e+01  4.5007182663511671e+01  4.4971424281265683e+01  4.4999197771667774e+01  4.5015713245595471e+01  4.5022238546926076e+01  4.4988870767195017e+01  4.4969951634234043e+01  4.5000576826526768e+01  4.4996855071024903e+01  4.4997206214270200e+01  4.4996813000956898e+01  4.4999497172396232e+01  4.5006958223120037e+01  4.4998809644348597e+01  4.4985456179766651e+01  4.4999095160035424e+01  4.4999601237153428e+01  4.4999194287120389e+01  4.4998732477179622e+01  4.4993649322504638e+01  4.5022605694479900e+01  4.4997799283841061e+01  4.4997839452803902e+01  4.4961633338188079e+01  4.5130368442532969e+01  4.5103406781691696e+01  4.5000000000000000e+01  4.5000616704501653e+01  4.4998513796367881e+01  4.4969855292271667e+01  4.4980036609601754e+01  4.5000322975805503e+01  4.4994599400700920e+01  4.4998287845750838e+01  4.4992309737741593e+01  4.4998279142088755e+01  4.5002653541779047e+01  4.5000897948800613e+01  4.5013725219738333e+01  4.5002759498958170e+01  4.5002942031729013e+01  4.5008857165310900e+01  4.5005327927555804e+01  4.5001086591806462e+01  4.4998683243198847e+01  4.4994992438688968e+01  4.5026226031919336e+01  4.4992782381476239e+01  4.4996279443877427e+01  4.4984396785389208e+01  4.5035159710379745e+01  4.4998261120609321e+01  4.4909298065226054e+01  4.4972528873095847e+01  4.4993669629732736e+01  4.4960641630342067e+01  4.5000343408307131e+01  4.5004848443509502e+01  4.5021705927856360e+01  4.4990443568775767e+01  4.5035896529910950e+01  4.4991519663478499e+01  4.4998985020974921e+01  4.4962262601302427e+01  4.5015835023794565e+01  4.4993928562427243e+01  4.5007704322986285e+01  4.4983619553030998e+01  4.5005777099586432e+01  4.5002124071892020e+01  4.4999838713482859e+01  4.4997650387289518e+01  4.5005107384065205e+01  4.4997848963011229e+01  4.4994397835510000e+01  4.5010862658746099e+01  4.4999331597465144e+01  4.5004754906760667e+01  4.4997793155771483e+01  4.5014175314457212e+01  4.4978333316324779e+01  4.5054839009553987e+01  4.5000000000000000e+01  4.4995522905680389e+01  4.5002255911045133e+01  4.5006687832678509e+01  4.4991649773123989e+01  4.5000515261486818e+01  4.5011218992802036e+01  4.5011380260784549e+01  4.5004816172876076e+01  4.5009803308371232e+01  4.5011065511783194e+01  4.4971590848446105e+01  4.4998757855508472e+01  4.5018144064744071e+01  4.5000418238197277e+01  4.4993228761364776e+01  4.5011102297169707e+01  4.5001272441295342e+01  4.4995980706227165e+01  4.4925948388099428e+01  4.4990992473594609e+01  4.4998307713494633e+01  4.5010965672546405e+01  4.4967850437762486e+01  4.4989876312295394e+01  4.4997668598476494e+01  4.4999059516649176e+01  4.5000702348464252e+01  4.5001716340747933e+01  4.4948105568709899e+01  4.5003890289199667e+01  4.4965229501168622e+01  4.5012339003998576e+01  4.5000000000000000e+01  4.4999572737792434e+01  4.5000000000000000e+01  4.5000000000000000e+01  4.5000458960699355e+01  4.4999472502157218e+01  4.5000000000000000e+01  4.4998581416964953e+01  4.5012250120724481e+01  4.5037635812294297e+01  4.499406234657696