<?xml version="1.0"?>
<VTKFile type="UnstructuredGrid"  version="0.1"  >
<UnstructuredGrid>
<Piece  NumberOfPoints="5481" NumberOfCells="23291">
<Points>
<DataArray  type="Float64"  NumberOfComponents="3"  format="ascii">1.924406051635742 17.76457023620605 24.35383033752441  1.901358008384705 16.69158935546875 24.36017990112305  1.726403951644897 17.1634407043457 23.84209060668945  2.652589233739742 17.35756745117177 23.95753872534853  0.6640430092811584 12.61184978485107 22.00791931152344  1.15884804725647 12.68982028961182 21.13993072509766  1.350532054901123 11.87736988067627 21.77273941040039  1.607178264336706 12.5324981423166 22.02859617901939  1.511336260514379 12.93872334678437 21.71219183636802  1.863824473772288 13.18762640395693 22.28445294763838  8.494725227355957 15.98536014556885 22.14562034606934  8.528478622436523 15.68459987640381 21.36166000366211  8.034095733928947 15.30480540228998 22.22776674124283  7.34225686901161 15.89672330182677 21.15639177377791  2.001898050308228 18.59700965881348 22.5815601348877  1.922162055969238 17.8474292755127 23.36731910705566  2.661471604280802 18.5403085858386 23.53254299703437  2.8539890806046 17.26271221631654 23.04184245702784  3.981308937072754 13.13778972625732 24.56105995178223  4.701860904693604 12.65676021575928 23.89072036743164  4.020880778777778 12.60395686389491 22.98168983377714  4.185547681377391 11.83882102399348 23.72920018057516  2.46412539932336 13.77979225364685 23.23879603842527  1.686281269310931 13.79227116995648 22.95674010268532  1.982729102686702 13.93006277032698 22.46317972075362  0.9084371392985024 13.80475008626611 22.67468416694538  2.101633731601117 14.67249913669702 22.64190649386886  1.505035435449809 14.23862461148157 22.65829533040711  7.951754093170166 16.60260963439941 22.51985931396484  8.222339630126953 15.819580078125 22.77043914794922  2.280373096466064 16.22086906433105 24.68157958984375  1.583698987960815 15.66744995117188 24.38533020019531  2.355726003646851 15.54158020019531 24.76709938049316  2.378039219222275 16.02883725701857 23.50853803333458  0.7245029807090759 16.06011009216309 21.70841979980469  1.072528004646301 16.53017997741699 20.83526992797852  1.910833683465429 16.19079036996547 21.80959160340977  1.058975129407738 15.21618938665286 20.93619382068317  0.8524230122566223 13.53999042510986 24.8889102935791  0.7967453874865846 12.96979585310671 24.51306389244213  1.253963753920453 13.00557062252031 24.58845266866805  0.7917108811656313 13.3729759754822 24.36954449089184  0.8574575185775757 13.13681030273438 25.03242969512939  1.2489292475995 13.4087507448958 24.44493326711775  0.8624920248985291 12.73363018035889 25.17594909667969  1.645435482942378 13.27751106468173 24.00095624065641  0.7309987500746402 13.20596152585454 23.85017868820457  5.274674892425537 14.59609985351562 23.03957939147949  5.046834945678711 13.78991985321045 23.25580978393555  5.801269054412842 13.95847034454346 22.95565032958984  5.539529575976355 14.44336482063414 22.30391962500562  3.008600950241089 16.22036933898926 24.52323913574219  3.697614908218384 16.54206085205078 23.80480003356934  3.589618921279907 15.66639995574951 24.01539039611816  4.397663116455078 13.7418098449707 20.48123931884766  4.657516956329346 13.262619972229 21.02181053161621  5.205208778381348 13.35202026367188 20.09989929199219  5.659588543931229 13.65208644386454 20.68399282534184  6.366209030151367 11.90091037750244 20.64446067810059  6.635348178157125 12.00332233108617 21.58620652653666  7.368824777547657 12.24060822297531 21.08706398865316  6.963081132263853 12.63485777765796 20.53283588350561  5.021362781524658 13.11100959777832 23.41481971740723  5.555618762969971 12.47443008422852 23.30525016784668  4.829929338345863 13.11647408114444 22.42904764558486  0.8377919793128967 11.81822967529297 25.30904960632324  2.284063441178733 12.50394311809691 25.05996355354705  1.493436303969845 11.30148213029939 25.30018576505208  1.643621150442635 12.18482005219836 24.52914577239632  1.003178859706537 11.86569698629982 23.99832799124558  2.430486565182549 11.13325011414197 24.39025016978946  3.32657805837332 11.90291382087451 24.23357859684795  2.582866066339347 11.82036034996865 23.98795929775016  2.735245567496143 12.50747058579534 23.58566842571086  2.509654504337438 12.50570685194612 24.32281598962896  8.104189872741699 15.06947040557861 23.14554977416992  7.327731132507324 14.82028007507324 23.05698013305664  7.246250597702243 15.30257624855249 22.39038437361537  2.113444242021528 14.45777614449039 21.29137771391376  3.670812042834841 14.38582680790048 21.15932506304092  3.009684130153849 13.8838226633398 22.03390163128443  2.774182065281653 15.04476167704057 21.81432614274173  3.434919888541779 15.63174720959074 22.33727457156969  2.124150721094327 15.00048526045728 23.8761674325709  1.034963160600872 15.18186076080113 22.5572488557608  1.516461701991288 14.26197205916824 22.03904759141369  1.5742037013112 14.81981845264576 21.92431328483728  0.9831264164911659 14.51665287122029 21.99671877235967  0.93128967238146 13.85144498163945 21.43618868895853  6.296521014874823 15.35463111557533 22.02101591706601  7.299532559372599 16.49401268575357 22.14818882512456  4.272822856903076 12.78633975982666 21.64837074279785  3.596800088882446 12.45174980163574 21.79353904724121  4.387653827667236 11.91355991363525 21.91115951538086  4.938755989074707 12.52659034729004 21.39591979980469  5.163350105285645 11.5066499710083 21.56249046325684  5.694982497478747 12.28555024992866 22.13819376743424  3.290148973464966 13.78055000305176 25.11223983764648  2.970134019851685 13.14533996582031 25.56036949157715  3.460881948471069 12.75436973571777 25.14419937133789  3.192938203223209 13.26823621655731 24.1155577566914  4.024335861206055 15.17730045318604 23.54174041748047  4.779201030731201 15.21722030639648 23.09655952453613  4.358302828741393 14.15160950337298 22.16861683295572  5.319088935852051 12.92625999450684 20.76078033447266  5.396815834909503 13.45843494825908 21.74351192530801  6.17987032719327 12.90255259362676 21.18347197071786  2.796634912490845 12.92343044281006 21.23683929443359  2.037884950637817 12.33613014221191 21.33011054992676  2.918296687806457 12.76142668927695 22.43806019264055  4.442739963531494 13.51119041442871 23.92003059387207  3.808628997360085 13.52070534804627 23.20469968628863  3.089411020278931 14.96428966522217 24.75527954101562  0.09939099848270416 12.21315956115723 22.85388946533203  0.8629630208015442 11.56124019622803 22.3843994140625  1.005063318318875 12.53337117550794 23.02589783242923  0.8254089951515198 10.68080997467041 22.72672080993652  1.447257041931152 10.96574974060059 22.14612007141113  2.08334752022033 11.65668892054146 22.77821523058934  2.500469813712333 13.96013936143925 24.59400733211408  2.419186843082794 13.27287364061952 24.0582569986739  1.161249995231628 16.23785972595215 23.68606948852539  1.706501189911574 15.60534900890985 23.0328934445477  1.642700358162978 15.61917249320472 23.78111846054814  1.5795569408476 15.09117301062921 23.21670814416585  1.09810657791625 15.70986024337664 23.1216591721431  4.346787929534912 14.40585994720459 23.60886001586914  0.7741699814796448 15.39546966552734 23.87018966674805  0.9045665710402584 15.28866521316424 23.21371926125443  1.449160351286986 15.19797746299231 23.87317854965947  0.09939099848270416 13.10501956939697 22.80590057373047  0.5522271584007895 12.81919537245246 22.91589920307985  0.09939099848270416 12.6590895652771 22.82989501953125  0.09939099848270416 12.913649559021 23.13419532775879  0.09939099848270416 12.72227954864502 23.46249008178711  8.759038925170898 15.43900966644287 22.76321029663086  8.593846327575209 14.50321432979344 22.53422227751752  1.12131915725661 14.24648669017563 23.33358462549894  1.275947272401407 14.08917039994401 24.12593245535051  7.290646336065041 13.4644046942229 19.86135085907214  7.172463855703381 13.38144870759182 21.16460905385517  6.402217238750978 13.42043275398313 20.19863675006398  0.09939099848270416 11.94379997253418 23.61638069152832  3.288299077006116 14.51489876727483 23.39820284722259  6.156514167785645 12.68785953521729 20.17497062683105  6.469689846038818 16.08783912658691 22.99431037902832  5.816948890686035 15.38241958618164 22.95677947998047  6.669045925140381 15.20491027832031 22.98912048339844  0.09939099848270416 15.32868003845215 21.61599922180176  1.046969145004305 15.19902507372699 21.74672133822199  0.5671770795417881 15.25527039962664 22.08662403878128  2.634238958358765 13.61798000335693 25.58502006530762  2.010046005249023 13.13603019714355 25.75625038146973  4.105174815631623 17.09241139249104 22.47656992760106  2.802679152991765 17.50149261753639 21.63509223106107  0.09939099848270416 14.52320003509521 23.72299003601074  0.09939099848270416 13.77742958068848 24.33415031433105  0.6876691354420557 13.78931519569955 23.88114631190377  0.6876691354420557 14.30618521751962 23.92446124568063  0.09939099848270416 14.00633001327515 23.67967510223389  0.6876691354420557 13.93329999031625 24.23004138484078  0.09939099848270416 13.63344478607178 23.98525524139404  0.09939099848270416 13.48945999145508 23.63636016845703  7.386490737752887 14.04294342752703 22.3050753281818  6.926880984971718 12.78493381423147 22.2150440594688  6.328709122032434 13.57657316327935 22.24035825091232  2.392266627445533 13.23204123976808 24.82698544283057  9.001936912536621 15.30832004547119 22.05870056152344  5.640539169311523 12.26914024353027 20.93239974975586  6.047941207885742 14.74345970153809 22.9544792175293  6.665482044219971 14.15958023071289 22.97458076477051  6.593931334928343 14.61348732840171 22.27877093950384  3.730314970016479 13.39478015899658 21.13582992553711  2.870256900787354 13.65106010437012 20.66634941101074  0.09939099848270416 12.29098033905029 24.89026069641113  0.09939099848270416 11.75004005432129 24.43815040588379  6.319692379248235 14.17237598803667 21.2895315119014  5.215761809311176 14.73543755949728 20.9182
[...]
<PointData  Scalars="p_CO2"> 
<DataArray  type="Float64"  Name="p_CO2"  format="ascii">4.4993325813946278e+01  4.5003236095944672e+01  4.5003161637827894e+01  4.4995717852561732e+01  4.5000043745172285e+01  4.4999393827532707e+01  4.5000415351599251e+01  4.5003169938078607e+01  4.5002913430806181e+01  4.4999897011210471e+01  4.4997010117656217e+01  4.4999418233885635e+01  4.4997532297229320e+01  4.4998837038784878e+01  4.5000182699603251e+01  4.5004948504729981e+01  4.5003020152972390e+01  4.4997960223553306e+01  4.5001462546862605e+01  4.5001663373152525e+01  4.4990061564979122e+01  4.4992320502429095e+01  4.4999777330639752e+01  4.5000157968901796e+01  4.4999344727071538e+01  4.4999490549947346e+01  4.4999598517663905e+01  4.4998371607842408e+01  4.5004224824118644e+01  4.5003304181930211e+01  4.4999872471226936e+01  4.4999099013618114e+01  4.4997287535313575e+01  4.5002490612327755e+01  4.4999123176671432e+01  4.5001546226372064e+01  4.4997840270130133e+01  4.4998751922046324e+01  4.5000289790206637e+01  4.5002188622003743e+01  4.4999126419740328e+01  4.5000427501924264e+01  4.4998751552632534e+01  4.4998469396966712e+01  4.5003724595426107e+01  4.5000653733167518e+01  4.5000397070496199e+01  4.4998376369016817e+01  4.5002517994844077e+01  4.4994453841567278e+01  4.5002194364044556e+01  4.4997693987920165e+01  4.5000210059205550e+01  4.5000923848871714e+01  4.5000018355956215e+01  4.5001034760482590e+01  4.4993562874942313e+01  4.5005023933828511e+01  4.4998864562690748e+01  4.5001069477409054e+01  4.4997653131745935e+01  4.4997063175585716e+01  4.5005890526212475e+01  4.5003597127797853e+01  4.4999571780586884e+01  4.4995222678503332e+01  4.4999047765285802e+01  4.4999135925106920e+01  4.4996826078059065e+01  4.5004015414309045e+01  4.5002024997700850e+01  4.5000616356294181e+01  4.4998380986091036e+01  4.4999131865096494e+01  4.4999009092645650e+01  4.5003653691621352e+01  4.5004001660221434e+01  4.4993077868316135e+01  4.4998080946918293e+01  4.5001494847845322e+01  4.4997909971500853e+01  4.4996734514510031e+01  4.4997286495172752e+01  4.4999776950476615e+01  4.4999272380178361e+01  4.4999630961423122e+01  4.4998291406516152e+01  4.5000898035946825e+01  4.5000815984207712e+01  4.5001135248422756e+01  4.4999544409035032e+01  4.5000844820886392e+01  4.5006500930320534e+01  4.4997037383849573e+01  4.4993064600570392e+01  4.4988626906885990e+01  4.5002150119497244e+01  4.4998994268254748e+01  4.4999684733132696e+01  4.4999850179128302e+01  4.5000699798193345e+01  4.5000872221036161e+01  4.5001081210505234e+01  4.4998112319477244e+01  4.5003034228896013e+01  4.5000171450144578e+01  4.5002770784953363e+01  4.5001915492523487e+01  4.4998965956559807e+01  4.4998320093420638e+01  4.5000460500601733e+01  4.4993400872334213e+01  4.5000137037751948e+01  4.5000000000000000e+01  4.5001028525004564e+01  4.4998225020279278e+01  4.4999976469495913e+01  4.4999147912861261e+01  4.4997710708163119e+01  4.4998703947875796e+01  4.5001630829027391e+01  4.4997622319264636e+01  4.5002346326832253e+01  4.4998808931735425e+01  4.4999286304556669e+01  4.4999000974422827e+01  4.5000155753446478e+01  4.5000905239573697e+01  4.5001308700906073e+01  4.4999616480311694e+01  4.5000000000000000e+01  4.4999496730869204e+01  4.5000000000000000e+01  4.5000000000000000e+01  4.5000000000000000e+01  4.5010392957351705e+01  4.4988233779322606e+01  4.4998591598170783e+01  4.4998478118563888e+01  4.4999808210462930e+01  4.5000219333079698e+01  4.4997697639145549e+01  4.5000000000000000e+01  4.4999042407476828e+01  4.5000617691764290e+01  4.5001701781743940e+01  4.4998113845242379e+01  4.4999968802416014e+01  4.5000000000000000e+01  4.4998695787152442e+01  4.4999854632592651e+01  4.5000886895398949e+01  4.4998488395555505e+01  4.4997906471856453e+01  4.5001136139053969e+01  4.5000000000000000e+01  4.5000000000000000e+01  4.4998145695974102e+01  4.4999332343182779e+01  4.5000000000000000e+01  4.5001406323581193e+01  4.5000000000000000e+01  4.5000000000000000e+01  4.4998314345887998e+01  4.5001136639856036e+01  4.5003121512601417e+01  4.5000067405975258e+01  4.5000637208154487e+01  4.5001424098741545e+01  4.4998604039690854e+01  4.4999531201510457e+01  4.5001390932106681e+01  4.5001621279006599e+01  4.4998322232301142e+01  4.5000000000000000e+01  4.5000000000000000e+01  4.4999864773828001e+01  4.4999933001837078e+01  4.5001173232749203e+01  4.5000058460398087e+01  4.5000000000000000e+01  4.5000000000000000e+01  4.5001774783193198e+01  4.4997331196427609e+01  4.4999689260497078e+01  4.4998097861268562e+01  4.5002618928354259e+01  4.5002215238177392e+01  4.5002552600339754e+01  4.5000367391330030e+01  4.5000000000000000e+01  4.5002116378955584e+01  4.5001606912783153e+01  4.4997927143937304e+01  4.4998628906808761e+01  4.5000000000000000e+01  4.4997748184617670e+01  4.5003924465795805e+01  4.5003122872305227e+01  4.4998362480286183e+01  4.5001680367239302e+01  4.5000000000000000e+01  4.4999560768649552e+01  4.4999374869218265e+01  4.4998408415705931e+01  4.5002038518651290e+01  4.4998910829150638e+01  4.5000000000000000e+01  4.5001035868943262e+01  4.4996811847269903e+01  4.4999741763297770e+01  4.5000253570836271e+01  4.5000000000000000e+01  4.5000000000000000e+01  4.5000000000000000e+01  4.5003331597422800e+01  4.5000000000000000e+01  4.4996539595511798e+01  4.5001262540297382e+01  4.4996702616277496e+01  4.4998722709178935e+01  4.4997559408963113e+01  4.5000627419555393e+01  4.5000891588215794e+01  4.4997779541554337e+01  4.5001831193371487e+01  4.5001138564034399e+01  4.5001441815876447e+01  4.4999339522341266e+01  4.4997563770342886e+01  4.4996163790157688e+01  4.5000478919123189e+01  4.5002077804642234e+01  4.5001531687275197e+01  4.5000205395552349e+01  4.4998057285196602e+01  4.4999698110786518e+01  4.5000203708577558e+01  4.4998409860777450e+01  4.5000060578187430e+01  4.4994831183554766e+01  4.4999094608662936e+01  4.5000000000000000e+01  4.5000063264516584e+01  4.5000602268993532e+01  4.4999977684160811e+01  4.4999281497391650e+01  4.5002708475148225e+01  4.4999273700776364e+01  4.5001540129804660e+01  4.5000218312730432e+01  4.5000000000000000e+01  4.4999179159336606e+01  4.5001310888131762e+01  4.4996620484172759e+01  4.5000301637752948e+01  4.5001324238350655e+01  4.4997765614207673e+01  4.4998585316141700e+01  4.5001831403809675e+01  4.5000000000000000e+01  4.4998575237485070e+01  4.5000677032097677e+01  4.5002243385746631e+01  4.5000162153768066e+01  4.4995111166644641e+01  4.5000000000000000e+01  4.5004271078276176e+01  4.5005257775719237e+01  4.4996666120154458e+01  4.5001194727412511e+01  4.5000117769484497e+01  4.5005665961259773e+01  4.4999499066242251e+01  4.5001621748024363e+01  4.4998438712875689e+01  4.5003399310219393e+01  4.4999875565729326e+01  4.4996649151540048e+01  4.5000267589778524e+01  4.4999056715423677e+01  4.5001008699859774e+01  4.4998945664240985e+01  4.4998915796699642e+01  4.5000178007787440e+01  4.4999941997964527e+01  4.4999756494929017e+01  4.4998415887595698e+01  4.4996859990698219e+01  4.4998702994390662e+01  4.5000000000000000e+01  4.5001161564311673e+01  4.4999446502412944e+01  4.5000000000000000e+01  4.5000452532944678e+01  4.5000000000000000e+01  4.5000000000000000e+01  4.5001200972560810e+01  4.5001782938855250e+01  4.4998590553587057e+01  4.4999996353932332e+01  4.5000879595981097e+01  4.5006044590344480e+01  4.4997206272746610e+01  4.5001427074742608e+01  4.4998182826709559e+01  4.5000000000000000e+01  4.5000000000000000e+01  4.5000000000000000e+01  4.5003001604242399e+01  4.5003840893603481e+01  4.4998742800960557e+01  4.5000000000000000e+01  4.5000000000000000e+01  4.4999754495188398e+01  4.4999046448307794e+01  4.5000000000000000e+01  4.5000000000000000e+01  4.5000000000000000e+01  4.5002220250218642e+01  4.5000340830857560e+01  4.4999669738068015e+01  4.5001966192553667e+01  4.5000000000000000e+01  4.5000000000000000e+01  4.5002292090962690e+01  4.4998666264191634e+01  4.5001011997788936e+01  4.4998605829833657e+01  4.4999084925259218e+01  4.5002652602508618e+01  4.5000197656108867e+01  4.5001020788413214e+01  4.5000000000000000e+01  4.5000000000000000e+01  4.4995556303967980e+01  4.4998761053085630e+01  4.5007531168163737e+01  4.5003654674443752e+01  4.5003194872083277e+01  4.5008674431798333e+01  4.4999883420602615e+01  4.4998908737038079e+01  4.4998514743709826e+01  4.4999635568840027e+01  4.5002290479470048e+01  4.5001238105617546e+01  4.4999877773620319e+01  4.4998873993844363e+01  4.5001181734805250e+01  4.5000002300670310e+01  4.5000000000000000e+01  4.5000000000000000e+01  4.4998263950646084e+01  4.5000694148473464e+01  4.4992539444217194e+01  4.5000000000000000e+01  4.5000000000000000e+01  4.5000000000000000e+01  4.5000000000000000e+01  4.5000000000000000e+01  4.5000000000000000e+01  4.5000656529001631e+01  4.5002969250722636e+01  4.4997691902948148e+01  4.4998687980500350e+01  4.5000000000000000e+01  4.5000000000000000e+01  4.5000000000000000e+01  4.5000000000000000e+01  4.4999687899678868e+01  4.5004318309097030e+01  4.4992702508075013e+01  4.4997552100939629e+01  4.4999830914841262e+01  4.4996913742823956e+01  4.5008309643961177e+01  4.5000842736113540e+01  4.5000770645633807e+01  4.4998972536972190e+01  4.5003060086706782e+01  4.4988826449898980e+01  4.5007476609495455e+01  4.4995801400326755e+01  4.4997380573271805e+01  4.5018841649984829e+01  4.4988362750699714e+01  4.4999209450074154e+01  4.5001182035971070e+01  4.4998038445352194e+01  4.5001298438417521e+01  4.4998961121072362e+01  4.5001779231047223e+01  4.4999799465914641e+01  4.5005591250230296e+01  4.4996219988905032e+01  4.4998580400733907e+01  4.4993130107346055e+01  4.5005323192070435e+01  4.4999534817267644e+01  4.5002735551072149e+01  4.4998217862672874e+01  4.4998749737625175e+01  4.4996749024161353e+01  4.5002505236915169e+01  4.5002122096879511e+01  4.4986290980703252e+01  4.5018021472134798e+01  4.5005273149395052e+01  4.5001364096901959e+01  4.5002204261005041e+01  4.5000828127738025e+01  4.5001135619755004e+01  4.4995719529872737e+01  4.4996013004151159e+01  4.5002212627645363e+01  4.5000318709846105e+01  4.5002364171047127e+01  4.5026303800075972e+01  4.4986746069008952e+01  4.5000219777636538e+01  4.5001538429007127e+01  4.4994546821265445e+01  4.4997176996480754e+01  4.5002480644385116e+01  4.4996423173645702e+01  4.5001309432570970e+01  4.4996331131292806e+01  4.5001013699631521e+01  4.4997203604589878e+01  4.5000891406939672e+01  4.4999137206546848e+01  4.5002613906796789e+01  4.5002794961484419e+01  4.5000239060761750e+01  4.5006487123352407e+01  4.5018032364969478e+01  4.4997754407654412e+01  4.4999191139969518e+01  4.4998921623940234e+01  4.4997401972291406e+01  4.4998547826490665e+01  4.5001031696597700e+01  4.5002689420505114e+01  4.4998303546090924e+01  4.4999971156049945e+01  4.4998674118876878e+01  4.4996928812471765e+01  4.4999577560575375e+01  4.4999547280589695e+01  4.4997976667199183e+01  4.5013153213475647e+01  4.4997510658524064e+01  4.4998505164903804e+01  4.5000836032406404e+01  4.5000664708227028e+01  4.5001154293951195e+01  4.5000263486471688e+01  4.4999914539425333e+01  4.5000319246005354e+01  4.4999445730745549e+01  4.4999027160195077e+01  4.5000871295605599e+01  4.4998974241256164e+01  4.5000000000000000e+01  4.5000091142506008e+01  4.5000162851595022e+01  4.4997574732458517e+01  4.5000107763768014e+01  4.4999923190844711e+01  4.5000143971414218e+01  4.5000633117339305e+01  4.4999712469661688e+01  4.5000404765315935e+01  4.4998251214357566e+01  4.5000331122969307e+01  4.4996034537927116e+01  4.4998418517748760e+01  4.5002174967858437e+01  4.5001065579106424e+01  4.4993457025211555e+01  4.4998737143941234e+01  4.5001688437583375e+01  4.5002612097235797e+01  4.4997956810878115e+01  4.4999255446489428e+01  4.5004675172359171e+01  4.4994718243810716e+01  4.5001099143572539e+01  4.4997461031218094e+01  4.5004648804192676e+01  4.4999548055434254e+01  4.5000774964000648e+01  4.5000010623937818e+01  4.4999372619723303e+01  4.4999360970979104e+01  4.5000192321714287e+01  4.5000377444862529e+01  4.4999836841643074e+01  4.5000058316346525e+01  4.5003412790688252e+01  4.4987544471989537e+01  4.4994062300013383e+01  4.4996552969638962e+01  4.4999184901532260e+01  4.4992299743693302e+01  4.5000000000000000e+01  4.5000056425595552e+01  4.5000000000000000e+01  4.4995924313626880e+01  4.4999732764004449e+01  4.5003255847068907e+01  4.5000318543285452e+01  4.5000824195984499e+01  4.4999431504499661e+01  4.4999480449696996e+01  4.4999454919601312e+01  4.5003357596115194e+01  4.4999923683122660e+01  4.5000000000000000e+01  4.5000482973134929e+01  4.4999011981898619e+01  4.4999854189011693e+01  4.4998217834295247e+01  4.5001302480990589e+01  4.5000662199831098e+01  4.5000087906282879e+01  4.4995401457278597e+01  4.4995652703136571e+01  4.5002755472461843e+01  4.4999045545651072e+01  4.5000000000000000e+01  4.4999955698935103e+01  4.5000000000000000e+01  4.5000000000000000e+01  4.5000000000000000e+01  4.4999509296887332e+01  4.4999683592840633e+01  4.5000000000000000e+01  4.5000000000000000e+01  4.4999376434730650e+01  4.5001913661971088e+01  4.4999941066663581e+01  4.4998947648371619e+01  4.4999615038998634e+01  4.5000929933039693e+01  4.4997111793637465e+01  4.5000234918800551e+01  4.5002079969920935e+01  4.5001678647623010e+01  4.4998524976478201e+01  4.5000565304856657e+01  4.4999721515642527e+01  4.5001275829029709e+01  4.4998557643399145e+01  4.5003548205130734e+01  4.5002101942110542e+01  4.5000355121804347e+01  4.4997665785517341e+01  4.4998885483938182e+01  4.4999857817075053e+01  4.5001973967718733e+01  4.4999977714344951e+01  4.5000252869278505e+01  4.5000438440520156e+01  4.5001899705982645e+01  4.4999627211430223e+01  4.4999385723259202e+01  4.5002550054278785e+01  4.4999482216896979e+01  4.4998434796827027e+01  4.5000429588033562e+01  4.4999619373009232e+01  4.5004105121001984e+01  4.5001647985891054e+01  4.4998516330710316e+01  4.4999604363834166e+01  4.5000000000000000e+01  4.5000000000000000e+01  4.5001321275588374e+01  4.5000609824092400e+01  4.5001224751183472e+01  4.4999935501157317e+01  4.5000196000135240e+01  4.5000631110021160e+01  4.5000000000000000e+01  4.4996546375334958e+01  4.5004682206911518e+01  4.5001905776899918e+01  4.4998430458004201e+01  4.4998186941977806e+01  4.4999055878886281e+01  4.4996684559107905e+01  4.5002803049126925e+01  4.4997816499878262e+01  4.4994273401058095e+01  4.5000265433778893e+01  4.5001248738354619e+01  4.4998533182185049e+01  4.4999029065186022e+01  4.4999534740042002e+01  4.4999679252875900e+01  4.4999735472501435e+01  4.4999809569550017e+01  4.5001663342367969e+01  4.4998235698353874e+01  4.5000751047935452e+01  4.4997512043910334e+01  4.4999068780034179e+01  4.4999339301910972e+01  4.4999806642950155e+01  4.5000677506766927e+01  4.4998682124365054e+01  4.4999992080860842e+01  4.4999917283217229e+01  4.4998482555443189e+01  4.4999679294414904e+01  4.4998730072450627e+01  4.4998278731017777e+01  4.5000952734596829e+01  4.5000044691758603e+01  4.5004115149371863e+01  4.5003467206485297e+01  4.4994966118344138e+01  4.4999016732499143e+01  4.5003298765035254e+01  4.5000490696295842e+01  4.5005219437703531e+01  4.5003252987570093e+01  4.4998785622641250e+01  4.5002370732494590e+01  4.4996094398122430e+01  4.5003287350129149e+01  4.5000919855989004e+01  4.5000190955812215e+01  4.5001405885974492e+01  4.4998757415813756e+01  4.5001480605073432e+01  4.4999695465427230e+01  4.5000498885676755e+01  4.4999410675306073e+01  4.5000246293502300e+01  4.4996575042154852e+01  4.5000280900696822e+01  4.5000167846254726e+01  4.4995448521984677e+01  4.4992396607785309e+01  4.4998457015729628e+01  4.5009827496754788e+01  4.4989282563371532e+01  4.5000228803875331e+01  4.4999969040627711e+01  4.4999807703048603e+01  4.5001730274207929e+01  4.5000511525855963e+01  4.4999697939874913e+01  4.5000664453086969e+01  4.4999474532039784e+01  4.4999793754325893e+01  4.5000390364410833e+01  4.5000163877199718e+01  4.4999566002727668e+01  4.4999720350280633e+01  4.5000922550269095e+01  4.4999175041664714e+01  4.4997253058414081e+01  4.5000708893514940e+01  4.5004135620785704e+01  4.4995116042251610e+01  4.5000905649918849e+01  4.5014164120809305e+01  4.5004603290609204e+01  4.4997482898547950e+01  4.4998898561149474e+01  4.5002400261821137e+01  4.4999147359826516e+01  4.4996949746210646e+01  4.4996829441868769e+01  4.5003517365297967e+01  4.5001024202506933e+01  4.4999359155820862e+01  4.5001421098133768e+01  4.5001757069447592e+01  4.5001072804376840e+01  4.5000000000000000e+01  4.4999617036814058e+01  4.4999859677301536e+01  4.4999936223683413e+01  4.4998957815496013e+01  4.4998758862934046e+01  4.5000122797906052e+01  4.5000094901690723e+01  4.4999942799023664e+01  4.5000110107329178e+01  4.5003888398873677e+01  4.4998283756742232e+01  4.5000315237993334e+01  4.5006896488494711e+01  4.5005377550719274e+01  4.5000087111496399e+01  4.5001570331892275e+01  4.4994730935129262e+01  4.5003044301635498e+01  4.4999241942324346e+01  4.5001738744859999e+01  4.5001892155808640e+01  4.4999949935312095e+01  4.4997540631979263e+01  4.4999385014643465e+01  4.5000429050899449e+01  4.4994307224734094e+01  4.5008561306919226e+01  4.4999943217982917e+01  4.5001966043108702e+01  4.4991985449806243e+01  4.4997512066752790e+01  4.5001987493157245e+01  4.4999264385899423e+01  4.5000171737558219e+01  4.4996861102512831e+01  4.4999441801338619e+01  4.5000171991283658e+01  4.5000723306101101e+01  4.5000148638610355e+01  4.4998418256993297e+01  4.4998758620403351e+01  4.4999496681381643e+01  4.5001360448892456e+01  4.4999414678105083e+01  4.4999691209281394e+01  4.5000683917770360e+01  4.4999927097971629e+01  4.5000769634624952e+01  4.5004626581145438e+01  4.4999027459871051e+01  4.4999791412513716e+01  4.4999544387519840e+01  4.4998993730560734e+01  4.5000999016448397e+01  4.4998789357894893e+01  4.4999941302158092e+01  4.5005129682941728e+01  4.4994833214291504e+01  4.4996084860203865e+01  4.5010246628632515e+01  4.4997011033584315e+01  4.4981861721101474e+01  4.4999613437734126e+01  4.4998392585231251e+01  4.4998488322256406e+01  4.5004807963397887e+01  4.4996537880973875e+01  4.4999277113220579e+01  4.4999118078800521e+01  4.5000074223534725e+01  4.4998760420709424e+01  4.5001005491388156e+01  4.5003519487351667e+01  4.4996882075848092e+01  4.4999549591315251e+01  4.5000000000000000e+01  4.4999019898865420e+01  4.5000000000000000e+01  4.5000000000000000e+01  4.5000000000000000e+01  4.5001023067016995e+01  4.5000353542203158e+01  4.5000000000000000e+01  4.5000000000000000e+01  4.4998590461426126e+01  4.5002150679068663e+01  4.5001548090702741e+01  4.4999552677145758e+01  4.5000623884318472e+01  4.5001351814123097e+01  4.5002464696198018e+01  4.5000710159335767e+01  4.5000000000000000e+01  4.4999496860436807e+01  4.4997512398562016e+01  4.5000000000000000e+01  4.5000000000000000e+01  4.4998853539465010e+01  4.5000761186196975e+01  4.4999373339990996e+01  4.5001012064050698e+01  4.4996519647866521e+01  4.5021381230911537e+01  4.5002121864194166e+01  4.5000703806237695e+01  4.5005012441179815e+01  4.4997709098642645e+01  4.5002023209965813e+01  4.4985952095848099e+01  4.4998851823015201e+01  4.5010571692166188e+01  4.4998044025116165e+01  4.4999738604075290e+01  4.4998296863927379e+01  4.4999837280279543e+01  4.4996233762514713e+01  4.5000689113876739e+01  4.4999677514137751e+01  4.4998741108466263e+01  4.5001334101771661e+01  4.4996915370700385e+01  4.5000000000000000e+01  4.5000000000000000e+01  4.5000822951866034e+01  4.5000000000000000e+01  4.5000000000000000e+01  4.4999038548188743e+01  4.4999408611371017e+01  4.4999300262211271e+01  4.4999686946184511e+01  4.5001016292875768e+01  4.4998644107399954e+01  4.4997951259975331e+01  4.5000580404825726e+01  4.4999104337112698e+01  4.5003684491605156e+01  4.4997910314462494e+01  4.5003053823201299e+01  4.5002568463466183e+01  4.5000686070203088e+01  4.5001750927447937e+01  4.4999559996299233e+01  4.5005430791227091e+01  4.5001644748681336e+01  4.499646290543948