<?xml version="1.0"?>
<VTKFile type="UnstructuredGrid"  version="0.1"  >
<UnstructuredGrid>
<Piece  NumberOfPoints="4098" NumberOfCells="16092">
<Points>
<DataArray  type="Float64"  NumberOfComponents="3"  format="ascii">25.53210067749023 20.91554069519043 3.662621021270752  24.64022121913131 20.52479818049426 3.111516921622141  25.40014418965537 19.7409081813928 3.504540786081332  25.47844600587739 20.93652764537671 2.782781689627657  25.21023941040039 20.48649978637695 4.294004917144775  25.56393051147461 19.82011032104492 4.613272190093994  24.84669286125188 19.12699579537363 4.308475955158785  24.25124931335449 16.9232292175293 3.839155912399292  23.62079219411703 17.71635839041461 3.438934459050593  24.91794444712747 17.969963950701 3.674418218386297  24.26508219196842 17.91474954301271 4.45968573537196  28.70745086669922 23.73998069763184 0.1048400029540062  28.5433292388916 22.62194061279297 0.1048400029540062  29.27704048156738 22.32172012329102 0.8813980221748352  28.37358321811812 23.05342941311557 1.870081996146004  25.40210055016541 18.7005834953907 4.245071725913613  26.10738115021834 19.38786728368807 3.878585753574675  22.70553970336914 18.96254920959473 3.76114296913147  22.86960029602051 18.0958309173584 3.376245021820068  23.08367986406609 17.88379882902383 4.218324751064866  23.7565240844104 18.636424928622 3.840160079712152  26.87431907653809 20.6636905670166 3.65421199798584  27.50098789353097 19.95275240646035 2.825362778490787  27.41514631241733 20.926719962632 2.218434162242338  26.36919697999709 20.25769919244069 3.042712584387993  24.60283088684082 20.78594017028809 4.613077163696289  24.71673011779785 21.21346092224121 3.982189893722534  23.0262393951416 18.52874946594238 2.655386924743652  23.00149917602539 17.66802978515625 2.485580921173096  23.67821359931972 18.62548815477596 2.833465040361401  26.08329963684082 20.30091094970703 3.974960088729858  26.57649040222168 19.36319923400879 4.312990188598633  26.24419975280762 21.09790992736816 3.367141008377075  26.98089981079102 21.50266075134277 3.153851985931396  26.22308997209591 21.2784162019722 2.290468961214058  24.81435012817383 20.22183990478516 4.96288013458252  23.87445948371823 19.80992426389664 3.76777612113791  23.78620069032061 20.58053458154003 4.938235566394593  26.82957077026367 23.57912063598633 2.965933084487915  26.46625271274807 23.7151547701246 1.466634776818756  26.38707400357703 22.56845611446268 2.181535477336161  27.35357276094996 23.47734553926368 2.161756008297063  26.48044967651367 19.87598991394043 0.1048400029540062  25.16401862211831 20.11064861030517 0.9435449889505493  26.74307586740657 19.79145720822484 1.425600610752474  25.73929454053961 20.86372887607358 1.081677552758436  28.41813617927023 20.28146282840785 2.118841775948675  27.71421794475399 20.26301866988897 1.051466329691694  28.25406917370778 21.23822539620396 1.283121516818162  27.18901062011719 20.61051940917969 0.1048400029540062  27.83649063110352 20.99832916259766 0.1048400029540062  27.92489051818848 20.3713493347168 0.1048400029540062  27.44669914245605 19.79690933227539 0.1048400029540062  27.86607933044434 26.04891014099121 0.1048400029540062  27.90233993530273 25.24723052978516 0.1048400029540062  27.98800303336561 25.62900902466007 1.332610432611943  27.42480871038026 26.08092272418056 0.947817220050288  25.28479957580566 18.39137077331543 5.263895988464355  25.27685928344727 17.63846015930176 4.492465019226074  25.97540092468262 17.93325042724609 4.437994003295898  22.31538009643555 18.29113960266113 4.194077968597412  23.11439602644595 18.55641017663681 4.760988062585535  23.45924309005772 21.05776126888179 3.085264706037115  23.71204700902584 20.8307861066118 3.880954492854891  24.31056891606134 17.77401379621242 2.883459512456558  24.80171401247263 19.00376364398918 3.087871230999264  23.74287033081055 21.91950035095215 0.1048400029540062  23.86343002319336 21.11713027954102 0.1048400029540062  24.24159240375844 22.17816250432941 0.9708605766927259  23.52601385749329 21.29193245429365 1.152527426721781  27.4468415714245 22.02844490512469 1.971012098759148  26.02940409569038 22.09384560462804 0.9527963886153199  24.64440813453371 21.341354363786 1.404409222439662  25.43204913466433 21.82694046133012 2.040560178752326  24.45220294166002 22.55119398972017 2.362110832589655  25.25080461672044 21.75039128046954 2.591415775071686  22.39909821655769 17.92021307069677 5.003935663339652  23.26860541374737 17.41431485040103 5.041101732048283  24.18782997131348 21.297119140625 4.599335193634033  23.26022359056116 21.54308557283478 4.419413018641663  25.54183147102888 18.27299156005724 2.352944149645082  24.13986923579026 19.01876072858251 1.503832765418269  25.36249413455128 17.69333778070426 0.9995273993844134  25.71717394598581 19.0049689820862 0.9070343545477592  26.17366981506348 18.57007026672363 4.711475849151611  27.01055908203125 18.26531028747559 4.307395935058594  26.00798925253133 18.39822474423426 3.568385246306509  27.20523067234524 18.5523522738769 2.431070879800902  28.16522957432089 19.11620970918696 1.777088324941769  26.85724191883127 18.22442647159266 1.130135781480168  22.29488945007324 21.24761962890625 2.77382493019104  22.55887031555176 20.43898010253906 3.102210998535156  22.80563926696777 20.52289962768555 2.429033041000366  27.02240586914218 19.13743403586577 3.488851090709712  26.24226521404978 19.10460245480603 2.622963429698906  25.2685829320665 19.92986562053322 2.13459076142049  23.94557202249319 20.2063083291357 1.187308805571664  23.76849558742123 20.60870692274447 2.082584151192689  23.74823677194521 19.74289129641997 2.499057851425027  22.97905921936035 17.27164077758789 3.802867889404297  23.63125991821289 16.86124038696289 3.343070030212402  23.12031936645508 17.27710914611816 3.075532913208008  22.99531936645508 19.86771011352539 2.036087036132812  23.39269065856934 16.90222930908203 4.306264877319336  26.09563064575195 23.0306396484375 2.971235990524292  25.37555017430565 23.02409334568385 1.788430093101289  26.90821971929372 17.96014701607408 3.181765734581906  23.26152038574219 22.56159019470215 0.1048400029540062  23.10268020629883 21.63809967041016 0.680279016494751  23.90811920166016 21.99844932556152 4.139681816101074  24.13450050354004 22.75200080871582 3.433835983276367  22.92410331975688 22.15717402649279 3.23931178445307  23.98249753913541 22.1393157518039 2.992336994520981  25.35606002807617 23.49297904968262 2.965689897537231  25.41657066345215 22.43314933776855 3.00242805480957  22.65109062194824 21.19024085998535 2.062160015106201  23.83094738926589 17.10653008726506 2.549667387690952  25.07357025146484 19.46237945556641 5.240264892578125  27.77742958068848 23.07222938537598 2.978637933731079  27.66686182420325 23.58253855972454 0.9320032393995861  27.32838880834201 22.59745933563967 0.9627752593302823  25.15592956542969 16.88245964050293 3.432296991348267  22.93247985839844 20.61784934997559 1.652335047721863  23.15410995483398 20.65877914428711 0.8267130255699158  23.05157089233398 18.62177085876465 0.8332059979438782  23.64579010009766 18.57118034362793 0.1048400029540062  23.87387605127591 17.86089654543213 1.494739748342444  23.31330150736201 22.91369334184481 2.139530197107837  27.33549256464362 24.85074460373716 0.8144838596683323  27.05750371201502 24.7638599774769 1.775390915896444  25.73744010925293 19.10700988769531 4.877886772155762  26.78910007553833 20.99153946406325 0.9445575854138442  22.96421051025391 19.17156028747559 3.17179799079895  23.02667045593262 19.19856071472168 2.395764112472534  26.91386985778809 22.48764038085938 2.962425947189331  26.56526947021484 21.97648048400879 0.1048400029540062  27.25774955749512 21.48270034790039 0.1048400029540062  27.57382218485409 21.47192942455922 0.8222321900269056  24.85964012145996 17.18535041809082 4.155404090881348  25.63063049316406 17.32551956176758 3.876635074615479  25.99531936645508 17.91485977172852 0.1048400029540062  22.30759048461914 21.98447036743164 1.945327997207642  23.36023158980903 21.60805717019429 2.046472751085594  25.01977267565183 20.92021320302355 2.078889713066693  24.92000961303711 23.1418399810791 0.1048400029540062  26.02297973632812 23.51478958129883 0.1048400029540062  25.78883934020996 22.47406005859375 0.1048400029540062  24.19530048869309 19.18480379177767 4.979706298391317  26.19186019897461 22.00040054321289 3.006242990493774  23.07366324422599 19.71787402548287 4.738510406420723  22.98661994934082 19.97294044494629 1.264302015304565  22.9869499206543 19.23163986206055 1.456308960914612  23.16373062133789 19.70122909545898 0.7357500195503235  23.72246932983398 19.34272003173828 0.1048400029540062  24.80456924438477 19.64085960388184 0.1048400029540062  24.41052055358887 18.66243934631348 0.1048400029540062  25.36025047302246 18.61368942260742 0.1048400029540062  25.69838905334473 20.38398933410645 0.1048400029540062  25.69862937927246 19.41049003601074 0.1048400029540062  25.71036911010742 21.43790054321289 0.1048400029540062  26.46305084228516 21.01262092590332 0.1048400029540062  26.07955932617188 23.91872024536133 2.968257904052734  26.66016006469727 24.6205005645752 2.729521036148071  24.83309936523438 20.76807022094727 0.1048400029540062  28.42863272136852 22.20335563458377 1.348468469141856  24.71633911132812 16.45649909973145 2.963169097900391  25.56178092956543 16.44702911376953 2.914483070373535  25.02506316369179 16.99005349841033 2.368206215069146  28.81473922729492 21.73464965820312 0.7217069864273071  23.89489936828613 20.21746063232422 0.1048400029540062  24.18711781956776 17.97775370907458 5.487013046510925  27.90275955200195 21.00038909912109 3.518238067626953  25.70508003234863 21.51108932495117 3.180427074432373  28.60363006591797 20.78763961791992 0.9232580065727234  28.3607292175293 19.67588043212891 0.7863209843635559  22.96750068664551 18.35115051269531 1.805379986763  22.58517074584961 19.84029006958008 3.662225008010864  22.91094970703125 19.87196922302246 2.8572781
[...]
<PointData  Scalars="p_O2"> 
<DataArray  type="Float64"  Name="p_O2"  format="ascii">1.0063042428845587e+02  9.9485558758109107e+01  1.0047077135481436e+02  1.0016147605981227e+02  9.9896368497083117e+01  9.9713745855517459e+01  1.0219653443063103e+02  9.9658328493824342e+01  1.0055600678364281e+02  9.9982913741796949e+01  9.9744560089236231e+01  1.0160766437962120e+02  9.9255316533616011e+01  1.0036868383479448e+02  9.9849989145589205e+01  1.0210010750529054e+02  9.8982053638832113e+01  9.9779694619065012e+01  9.9856883690204199e+01  9.8827913490446136e+01  9.9779842435111249e+01  9.9854203333365675e+01  9.9683772119712131e+01  9.9867717523073338e+01  1.0030247099815821e+02  1.0033029253885221e+02  9.9882536378364023e+01  1.0034067806820785e+02  9.9670104085772110e+01  1.0027646587441464e+02  1.0020263553751792e+02  1.0074522768881060e+02  9.9486993667729507e+01  9.9803914622014744e+01  1.0021793374405094e+02  9.9240117459530325e+01  1.0014856728053907e+02  1.0026552861740011e+02  1.0056853630134714e+02  9.9419412676372374e+01  9.9796284460546744e+01  9.9950383719463986e+01  9.9897282604715912e+01  1.0016440998536723e+02  1.0008096184067676e+02  1.0020522457413006e+02  1.0072702389422263e+02  1.0009789381959153e+02  9.9715690599918190e+01  1.0017991737357018e+02  1.0029469386958421e+02  9.9822468913049420e+01  1.0054635897683157e+02  9.9292002248324991e+01  9.9947629747005507e+01  1.0043137967428552e+02  1.0056124582785333e+02  1.0011202461161828e+02  9.9993577883637883e+01  9.9595502576365803e+01  9.9857780518052493e+01  1.0075301592190424e+02  9.9452784600733196e+01  9.9777201333334901e+01  1.0101299654858076e+02  1.0008090577285576e+02  9.9904446571164314e+01  9.9542670967075452e+01  9.9802078232735568e+01  1.0025684310318444e+02  9.9749994956180586e+01  1.0033104380675260e+02  1.0002033151351210e+02  9.9643009870387559e+01  1.0008878139349227e+02  1.0046950321444659e+02  1.0105260061844578e+02  9.9107523030281996e+01  1.0005530710201872e+02  1.0018484751740561e+02  1.0017609224806537e+02  1.0041938549429247e+02  9.9787413635015881e+01  9.9982508969477664e+01  1.0038000756030203e+02  9.9831141505979360e+01  9.9791588706459379e+01  9.9773294653482949e+01  9.9999297238776933e+01  1.0016041449099326e+02  1.0021447261479851e+02  1.0073213835484977e+02  1.0042909412232869e+02  9.9241063478624980e+01  9.9922929497086685e+01  1.0017176873134100e+02  9.9975915829786771e+01  1.0031230500961658e+02  1.0043583513663569e+02  1.0118291988353488e+02  9.9113041835049742e+01  9.8791541658231324e+01  9.9472191092356042e+01  1.0091166889852724e+02  1.0009423939894596e+02  1.0064734784046213e+02  1.0070998685218193e+02  9.9038133620635946e+01  1.0050317552555863e+02  9.9979877094241061e+01  1.0078716862560256e+02  1.0044480726880330e+02  9.9984754427150435e+01  9.9769233570818457e+01  9.9489993747853561e+01  1.0002361967895429e+02  1.0102850181832365e+02  1.0024059432345156e+02  1.0057266902460292e+02  1.0068211948119354e+02  9.9664373867053428e+01  1.0004812815503757e+02  9.9763177204632200e+01  1.0024235020482899e+02  1.0009055653764067e+02  9.9431392724453616e+01  1.0041993017771843e+02  1.0025275145452171e+02  9.9683487615007735e+01  1.0075451044353406e+02  9.8750220439626702e+01  9.9945927065221625e+01  1.0002779309898098e+02  9.9235517575421824e+01  9.9314642214488657e+01  9.9960747959534970e+01  9.9878435337918191e+01  1.0047005008838950e+02  9.9597474195222077e+01  9.9354782738227712e+01  9.9899669230559027e+01  9.9848529945412906e+01  9.9409413749815869e+01  9.9909996975741123e+01  1.0005484179951263e+02  9.9798087976342146e+01  1.0002383900782611e+02  9.9555932235386265e+01  9.9392000272075151e+01  1.0069856898862115e+02  9.9816063444608147e+01  1.0012683736466923e+02  1.0029191045625441e+02  1.0004495802472752e+02  1.0028517255229160e+02  1.0029833859189731e+02  9.9592233642560998e+01  1.0018636266308471e+02  1.0012254515829997e+02  1.0014125514095305e+02  9.9805336482955497e+01  9.9851304073161074e+01  9.9337523191683601e+01  9.9987768498299445e+01  9.8784083862480074e+01  9.9509111061227898e+01  9.9298247404728215e+01  9.9433230337499552e+01  1.0114367158153101e+02  9.9824312948258992e+01  9.7048636661740360e+01  9.9418165318825928e+01  1.0015787872273867e+02  9.9356645078135813e+01  9.9697273449214165e+01  1.0000532480677822e+02  9.9884002362543100e+01  1.0001205131340531e+02  9.9933750088905853e+01  1.0008446085432747e+02  9.9881554010424821e+01  1.0073833513019386e+02  1.0016246903739076e+02  9.9726484783663579e+01  9.9476258635536880e+01  1.0060376902597554e+02  9.9563034986688066e+01  9.8691261165851145e+01  1.0021379254439232e+02  1.0040098439439156e+02  1.0023716823592677e+02  1.0077592431515643e+02  1.0014446714684281e+02  1.0033670150210757e+02  9.9912430994842978e+01  9.9213042493245766e+01  1.0055634740337253e+02  1.0063974673071375e+02  1.0015597369280744e+02  9.9571802904423478e+01  9.9521680556735149e+01  9.9911152442504601e+01  1.0025850587483416e+02  9.9103501194811955e+01  9.9489044334944296e+01  1.0004851024534456e+02  9.9725118913502428e+01  9.9765535529525039e+01  1.0122419476423471e+02  1.0183783987540387e+02  1.0023793575029795e+02  1.0056398184128585e+02  9.8695008469339101e+01  9.9291042999045914e+01  1.0010936100163556e+02  9.9201226042696618e+01  1.0039275751688908e+02  9.9988893805316735e+01  1.0013317730036626e+02  9.9347750935933547e+01  1.0008850712486908e+02  9.9976699231642840e+01  9.9638593504199449e+01  9.9781042297896889e+01  1.0052655195015579e+02  9.9705127684387165e+01  9.9649177864528710e+01  9.9597414014445931e+01  9.9584243630681527e+01  1.0011464207916801e+02  9.9368078872531143e+01  1.0019369634351752e+02  9.9536856370524902e+01  1.0011733243050458e+02  9.9675948001000833e+01  9.9901979015655130e+01  1.0035085967932272e+02  1.0070777580912281e+02  1.0018332451015354e+02  9.9541524544549674e+01  1.0045602107731072e+02  9.9600085752606830e+01  1.0021276697003536e+02  9.9770532456826416e+01  9.9938902230377437e+01  1.0015010077758343e+02  1.0059096737247157e+02  9.9845568572774354e+01  1.0017458670636948e+02  9.9875892983807972e+01  1.0033101006756203e+02  1.0022237673941677e+02  9.9113160588969549e+01  1.0008834520724847e+02  9.7356400200401978e+01  1.0096991553289278e+02  1.0051776415461950e+02  1.0033597251215437e+02  1.0043550405999873e+02  9.9899173838060847e+01  1.0037814996306079e+02  1.0159563011771733e+02  1.0198216635781063e+02  9.9804944412690332e+01  1.0014033880978009e+02  1.0008076294483747e+02  1.0025658830434932e+02  1.0006349098295151e+02  9.9938912972220734e+01  9.9859305536857107e+01  1.0002288605639538e+02  1.0009811587294681e+02  9.9602053387971281e+01  1.0110562418982533e+02  9.9518598764577263e+01  1.0031277786048241e+02  1.0056487591015691e+02  1.0020040664624113e+02  9.9680942829950837e+01  9.9612266856628125e+01  1.0058920357147181e+02  9.8324785528255248e+01  9.8149811989632241e+01  1.0121633131739203e+02  9.9910113821018328e+01  9.9515484078364366e+01  1.0024544254363254e+02  9.8805096598422438e+01  1.0055511212626077e+02  1.0099515401789101e+02  1.0036661593254667e+02  9.8755939359027039e+01  9.9683353120347505e+01  9.9587890937538674e+01  9.9872361539329717e+01  9.9860191009220301e+01  9.9850760145065223e+01  9.9237143946381906e+01  9.9460761376536752e+01  1.0129444548191368e+02  1.0049765649034656e+02  9.9619336085180535e+01  1.0056655164581717e+02  9.9907564605399941e+01  1.0089984064917527e+02  9.9246258845987384e+01  1.0029131517490353e+02  9.9872958839008874e+01  1.0110123763890518e+02  9.9484583425930637e+01  1.0012287054238990e+02  9.9789603150649739e+01  9.9793652132270907e+01  1.0014855856222732e+02  1.0027298210552182e+02  9.9944646903073874e+01  9.9829030831999916e+01  1.0028036532575149e+02  9.9669587758208834e+01  9.9982675679516348e+01  9.9888039897052337e+01  9.9986168370673624e+01  1.0038797499501756e+02  9.9677714731088727e+01  9.9688489477617821e+01  1.0057175632489415e+02  1.0047107933638748e+02  9.9628291884210753e+01  1.0166193429006256e+02  9.9692621331503844e+01  1.0031596956513421e+02  1.0001726997128146e+02  9.9954616601092084e+01  1.0023373447005514e+02  9.9834806896425704e+01  9.9702710592396627e+01  1.0018575943950206e+02  9.9855735351598454e+01  9.9968188086814720e+01  1.0016746085715384e+02  9.9673642927882469e+01  9.9786643246268483e+01  1.0017241434594257e+02  1.0010745017534524e+02  9.9880476120669002e+01  1.0002498972303218e+02  1.0021277888981494e+02  9.9352603429896433e+01  9.9856647820064339e+01  9.9048012637475665e+01  1.0042929830085347e+02  9.7420944562851275e+01  1.0026197861806629e+02  9.9992615932367968e+01  1.0004746318062068e+02  9.9834248470199583e+01  1.0015948638257277e+02  1.0057321838315336e+02  1.0080735678587438e+02  9.9305549190180955e+01  9.6210449381958611e+01  9.9890544465892035e+01  9.9349998504103496e+01  1.0148712886071459e+02  9.9167310649813189e+01  9.9262591929500957e+01  9.9928114729988266e+01  9.9935782415720908e+01  9.6757058538054665e+01  1.0038269255733776e+02  9.9338764804838618e+01  9.9398333049289391e+01  9.9441631116653809e+01  9.9590391877125924e+01  9.9417027471875471e+01  1.0046724305948860e+02  1.0039671071172064e+02  9.9742985985269129e+01  1.0000800505728076e+02  9.9937336087137638e+01  1.0019878564883737e+02  1.0002431846958839e+02  9.9591058017206990e+01  9.9991765739787382e+01  9.9976514793617611e+01  1.0015187844707602e+02  9.8545520175308340e+01  1.0063168068056230e+02  9.9870505263111113e+01  1.0045006877920017e+02  1.0016092141565792e+02  1.0009375149050989e+02  9.9119523241220605e+01  1.0063746610779110e+02  1.0006658933542921e+02  1.0003875195884368e+02  1.0028796938205879e+02  9.9936915280941108e+01  9.8676276220852230e+01  9.9577499471764497e+01  1.0082285316278706e+02  9.9766204514878211e+01  1.0043118532288645e+02  1.0006355512619474e+02  9.9740574958807102e+01  1.0002009446240615e+02  1.0135803487933011e+02  1.0042364558948185e+02  1.0014671187385487e+02  1.0044003321713789e+02  9.9841088478826691e+01  1.0096014174946566e+02  1.0011101692435867e+02  9.9633000692114265e+01  1.0011201675693702e+02  1.0157561625518517e+02  9.9776496056253578e+01  9.9877847011480043e+01  1.0004849240211442e+02  9.9947683589478359e+01  1.0070794639307553e+02  9.8682410520729420e+01  9.9411811113891346e+01  9.9619450107526859e+01  1.0020791540429313e+02  9.9737217996507127e+01  1.0091451954841557e+02  9.9370474130872950e+01  1.0202951310622998e+02  9.9978667182008607e+01  1.0014452112927557e+02  1.0009720700783184e+02  1.0067643181188799e+02  1.0016348053757063e+02  1.0023148195182374e+02  9.9702526662142247e+01  1.0034337250696797e+02  1.0033547821241379e+02  9.9991944038903682e+01  9.9671064064948141e+01  1.0022249819727017e+02  1.0012922041262931e+02  1.0011952794007286e+02  1.0018857667533774e+02  1.0057973554855484e+02  1.0025582967028120e+02  9.9952366338268874e+01  1.0010393597791683e+02  1.0005881998407139e+02  1.0010652001844588e+02  1.0039208511905154e+02  1.0020405116275037e+02  1.0039658904195910e+02  9.9792613172017766e+01  1.0042556780840849e+02  1.0016241193299868e+02  1.0070898295549195e+02  1.0013585007920166e+02  9.8819187680535265e+01  1.0037854394606627e+02  9.9564172229833574e+01  9.9612766066492853e+01  9.9955338688824185e+01  9.9475774223178817e+01  9.9391482482478281e+01  1.0289791603639678e+02  9.8877855140921938e+01  9.9539440124367971e+01  9.9902635164496758e+01  9.8490355280143291e+01  1.0018922573999760e+02  9.9654159572084083e+01  1.0177940898073768e+02  9.8965114563964661e+01  1.0086434443136086e+02  9.9926825461458506e+01  1.0000186713439720e+02  1.0073728304972852e+02  1.0038660832845406e+02  1.0118194507995584e+02  9.9714532757116473e+01  1.0030429205004241e+02  1.0008442146920211e+02  9.9622812945118255e+01  9.9637610955285325e+01  1.0014415761458800e+02  9.8951359668142601e+01  9.9647252285523919e+01  1.0009654034364225e+02  9.9075199850263729e+01  1.0027524554146699e+02  9.9662142730549732e+01  9.9673715863370177e+01  1.0026388791319937e+02  1.0000868987135441e+02  1.0071195700933212e+02  1.0028880732496937e+02  9.9837322678966530e+01  1.0014468226002020e+02  1.0105176014790015e+02  1.0052394402559455e+02  1.0060825511429178e+02  1.0022765460547642e+02  9.8757737009265085e+01  9.8684860515094527e+01  9.9900809208705994e+01  1.0002569549775447e+02  9.9696367809734156e+01  9.9952803148066010e+01  9.9900715467360783e+01  1.0017632992739681e+02  9.6389367112800102e+01  9.9757981853639208e+01  1.0037895210999743e+02  1.0079623136864062e+02  9.9988663511085065e+01  9.9836074399990665e+01  9.8776493394499354e+01  1.0032973967631666e+02  9.9654063553733081e+01  9.9875624348420430e+01  9.9703547757047176e+01  1.0015631130370069e+02  1.0017952711934174e+02  9.9369426225112349e+01  1.0018571773328198e+02  1.0040279987724051e+02  1.0106797252785951e+02  9.9750233189304936e+01  9.9651581941538410e+01  1.0143973364829537e+02  1.0090164363464010e+02  9.9858802062828673e+01  1.0025196737182095e+02  9.9134006561610292e+01  1.0529035943657422e+02  1.0007573678119275e+02  9.9430224746909758e+01  9.8779067331757574e+01  9.9853249933940390e+01  9.9567554261791756e+01  1.0056183672111290e+02  1.0024464595615380e+02  9.4854299160877360e+01  1.0030638191724545e+02  1.0093802658504023e+02  9.9909964575838018e+01  9.9941267618242293e+01  1.0045303599403017e+02  1.0010949903256738e+02  9.9963460667258857e+01  9.9727030425617784e+01  9.9638913520489524e+01  9.9641581169457055e+01  1.0030146579955915e+02  1.0022977552212824e+02  9.9784231675197688e+01  1.0042398222764785e+02  1.0004932352329192e+02  1.0010003494053097e+02  9.9916842667640992e+01  9.8771588889793890e+01  1.0071070131868656e+02  9.4032134984490767e+01  1.0017632930725661e+02  1.0142120841555287e+02  9.9079791068240155e+01  9.8856760848896471e+01  1.0014240009980455e+02  1.0002065462634451e+02  9.9839733706122914e+01  9.9941065191411866e+01  9.9251922857395087e+01  1.0051661091400521e+02  1.0040337516568484e+02  9.9812949988005954e+01  1.0010174688343385e+02  9.9927730999288258e+01  1.0000450135274841e+02  9.9905626986404428e+01  1.0002166416990994e+02  1.0023928818262799e+02  9.9951830657668623e+01  9.9874934417745607e+01  1.0023012541881350e+02  1.0021092837880285e+02  1.0000900976962429e+02  9.9795713668679440e+01  1.0101717608314600e+02  9.8380778657586376e+01  9.9974415083399279e+01  9.9463192818030564e+01  9.9929365155922028e+01  9.9995043755753954e+01  1.0010923680355425e+02  9.9600656747921363e+01  9.9965040180273974e+01  9.9793096488955541e+01  9.9620609212595056e+01  9.9962642256022548e+01  1.0038289537012537e+02  9.9913996918461237e+01  1.0021255211269363e+02  9.9882331219539424e+01  1.0001225288268211e+02  9.9174904879953672e+01  1.0022630761958209e+02  1.0033825633181360e+02  9.9842555797804181e+01  1.0012215783722553e+02  1.0008052451467348e+02  1.0019223569858173e+02  1.0013007175950398e+02  1.0003246965176973e+02  1.0003388517540051e+02  9.9913033985647346e+01  9.9128696538662822e+01  1.0008335169531961e+02  9.9633849493134690e+01  9.9604409516951392e+01  1.0004544442265289e+02  1.0040202137541380e+02  9.9560052469929090e+01  1.0069134517530152e+02  9.9939188947025272e+01  1.0004564357957616e+02  9.9836378924557494e+01  9.9923273314482401e+01  9.9976980770711450e+01  1.0039587739177422e+02  1.0016385379901961e+02  9.9854924759366227e+01  9.9917703869190831e+01  9.9947240467553627e+01  1.0023212816066862e+02  1.0122765301270906e+02  1.0099554421242250e+02  1.0072047195614493e+02  1.0205114412545478e+02  1.0180484999039328e+02  9.8929594286285933e+01  1.0064468210031335e+02  9.9839487729673763e+01  1.0109827072932354e+02  1.0105460332391142e+02  9.9822166425942569e+01  9.9642008201177376e+01  1.0106439080439570e+02  1.0035015115426434e+02  1.0024854890192225e+02  9.9292877346392373e+01  9.9638955652999613e+01  1.0110225562040669e+02  1.0215595502325009e+02  9.9546543644724125e+01  9.8297060366114579e+01  9.9964787833606650e+01  1.0013447093157998e+02  9.7297991676297087e+01  9.7239926782535505e+01  1.0002257842184942e+02  1.0024603049711247e+02  1.0048034811311800e+02  9.9824705127345140e+01  9.8967878065628696e+01  9.9895704371039528e+01  9.9737340405191830e+01  9.9574882121570084e+01  9.9094488181262221e+01  9.9026959445889759e+01  1.0141645543230946e+02  1.0050641428523841e+02  9.9060138659584879e+01  9.9929421126279664e+01  1.0000775393078139e+02  1.0026557830760828e+02  9.9897469481188566e+01  1.0006291371117153e+02  9.9791288856326034e+01  1.0046136516660943e+02  1.0012770810900807e+02  9.9836017361628009e+01  1.0036172491421823e+02  1.0009586285448351e+02  9.9825599831973634e+01  9.5858118174879479e+01  9.8697886596706624e+01  1.0091097725923569e+02  9.7078203137097475e+01  9.9558303888009704e+01  1.0000278756480427e+02  9.9712702050543584e+01  9.9979998727399988e+01  1.0020691688887287e+02  1.0029411993424547e+02  1.0096576016998651e+02  9.8491119510624884e+01  1.0106624381748799e+02  1.0092892869445227e+02  1.0015809746756713e+02  1.0033635503401706e+02  9.7141074914065726e+01  1.0065923816002864e+02  9.9580484458161521e+01  9.9473680199163695e+01  1.0068017018064994e+02  9.9966198374896067e+01  9.8406654362274082e+01  1.0060509147893352e+02  1.0101445277762861e+02  9.9566151247500002e+01  9.9279414388202611e+01  9.9659258878842962e+01  1.0000910782454989e+02  1.0092605118061290e+02  1.0156956988441959e+02  9.9556689358379529e+01  1.0090130557893971e+02  1.0313347055304598e+02  9.8753590041725019e+01  1.0029724358908054e+02  1.0035410639172758e+02  9.9481172638979373e+01  1.0037826325622541e+02  9.9946238051538259e+01  9.9417999395429803e+01  9.9964693974231693e+01  1.0046504030849215e+02  1.0078975965067129e+02  9.9628431415621336e+01  1.0072168032311636e+02  9.9727576037020000e+01  9.9765789581620950e+01  1.0042326626241987e+02  9.9732310592714512e+01  9.9860759356878731e+01  1.0004772111644833e+02  1.0007211895878561e+02  1.0043137926978825e+02  9.9830083949365516e+01  9.9665950604653744e+01  1.0035751289562273e+02  1.0039605236176908e+02  9.9811593140908670e+01  1.0018940972968778e+02  1.0125162893432719e+02  9.9141685788247372e+01  1.0071908735470426e+02  1.0148835975634752e+02  9.9679625395117981e+01  9.9707643829228516e+01  1.0076056924866960e+02  1.0035637323807404e+02  9.6690563363605619e+01  9.9554521608525988e+01  1.0011066537075442e+02  1.0042505224394623e+02  1.0008557692479003e+02  1.0024136921026388e+02  9.7114811045268908e+01  9.6152036431454249e+01  1.0221279806383751e+02  9.9414143843593806e+01  1.0079355224488793e+02  1.0067178609870659e+02  9.9901218580317305e+01  9.9626369382355918e+01  9.9973021276637070e+01  1.0023866068381447e+02  1.0011771329009504e+02  1.0014910875510363e+02  1.0091299220555088e+02  9.9770015520917298e+01  1.0004527231465433e+02  1.0061981183618929e+02  1.0011253939624498e+02  9.9549045852623905e+01  1.0050374161399994e+02  1.0012441430059084e+02  9.9904541706797332e+01  1.0023665614260447e+02  1.0036873708114361e+02  9.9791897521736473e+01  9.9039784534341379e+01  9.9891006181213086e+01  1.0038333030485536e+02  9.9974085062653671e+01  1.0000182054757829e+02  9.9413691796487910e+01  9.9497170181660053e+01  1.0032401074640049e+02  9.9857950630509436e+01  9.9788576316471065e+01  9.9748728138879628e+01  1.0031946354275857e+02  1.0072811785136531e+02  9.9748391197648274e+01  1.0228461867409735e+02  9.9874392839480151e+01  9.9837540511811540e+01  9.9312529162307925e+01  1.0053093963044407e+02  1.0161161150096446e+02  9.7860351911114336e+01  9.6485707180438851e+01  9.4456907319885431e+01  1.0316105279055760e+02  9.7815000780044144e+01  9.9416634616366750e+01  1.0021149377056319e+02  9.9969334819506059e+01  9.9669449540880194e+01  1.0094885503157613e+02  9.9868381472114947e+01  9.9351635860331129e+01  9.9251500821647340e+01  9.9272583221203888e+01  9.9210954474027531e+01  9.9559420451374635e+01  1.0016336704260017e+02  1.0117760327468875e+02  1.0137175323757472e+02  9.9167548921209629e+01  1.0093032273264910e+02  1.0010130732558501e+02  1.0027450502616934e+02  1.0011432665087591e+02  9.9698083986185480e+01  9.9865561598150904e+01  1.0047636301800384e