<?xml version="1.0"?>
<VTKFile type="UnstructuredGrid"  version="0.1"  >
<UnstructuredGrid>
<Piece  NumberOfPoints="5351" NumberOfCells="21877">
<Points>
<DataArray  type="Float64"  NumberOfComponents="3"  format="ascii">11.6842098236084 30.66926956176758 32.82812881469727  11.39696025848389 30.57760047912598 32.34001922607422  12.13492965698242 31.03425025939941 31.9976806640625  11.99260997772217 30.02845001220703 32.15658950805664  5.645654201507568 21.17927932739258 37.23579025268555  5.056466102600098 20.50606918334961 36.96971130371094  4.851836235526027 21.33507962380647 37.68239085381686  4.698966385913749 21.05992757480884 36.50151520458071  12.38605976104736 34.70022964477539 36.07826995849609  12.2485680832481 36.34376549340885 36.34260710065332  11.53387144660103 35.02077575383205 36.73175429694053  11.6065409293136 35.07260164603684 35.56695154921104  2.037676572799683 37.81325531005859 39.83066558837891  2.211963415145874 36.93383026123047 39.80255126953125  2.797188282012939 37.66729354858398 39.89125061035156  1.971482767138679 37.70497172946749 39.16728459313786  1.584525942802429 39.89572906494141 22.92720031738281  1.296501994132996 38.96308135986328 23.04791069030762  1.102702021598816 39.2034797668457 22.40666961669922  2.172826438458049 39.01558168694685 22.92397749628122  4.911716938018799 22.46944999694824 26.49673080444336  3.665626390300553 22.18963262643954 26.34688373312634  4.348631411712614 22.52274042586354 27.74787178285976  4.769721095018223 21.53722159354084 27.12003837417191  8.121655464172363 37.74383163452148 33.07558059692383  8.706639289855957 37.42276000976562 32.6844596862793  8.748313178825397 38.15181894944418 32.17171915469483  8.909582792962354 37.96457008788087 33.44744387728456  2.919678926467896 20.72513961791992 32.09609985351562  3.445698976516724 20.14925003051758 32.04328918457031  3.812129534549468 20.55776518127621 33.16413435645816  4.012580218219198 20.99977661651681 32.00676129884497  10.08242034912109 37.74050140380859 30.72151947021484  9.506823258741134 38.65936742356441 31.16827756190667  10.40416923441926 38.83660594420363 30.68629455363521  10.57034548532746 38.06650251163888 31.63533326396238  3.581475019454956 34.61917877197266 30.97784996032715  4.171729004993799 33.60093488815438 29.92050816511257  2.859983157894381 33.78091226475991 29.99482525734578  3.995953790161748 34.55346957294583 29.65131932477753  5.218859190028217 21.98603590724418 28.81890483398217  4.676205075609293 21.44736067236387 30.12771380520065  5.824290651816852 21.21821696733302 29.11592011048639  5.969214159339058 21.66757108999511 29.97916455789222  12.09739017486572 35.96720123291016 31.83163070678711  12.06365966796875 35.03582000732422 32.03065872192383  12.9337100982666 35.28232955932617 31.89193916320801  12.20199763002288 35.61908211795688 32.52631607285277  0.5222272872924805 35.12524032592773 32.89327239990234  0.6199345973222138 35.35332173645403 32.56066804200404  0.6432422789529157 35.03852704241971 32.42616749908923  0.7058736321418168 35.28763074219134 32.79767327576869  0.4362882524728775 35.19093132019043 32.6562671661377  0.7291813137725187 34.97283604815701 32.66317273285388  0.3503492176532745 35.25662231445312 32.41926193237305  0.936135340252557 34.82043177038629 32.43307306580542  0.889519976991153 35.45002115845495 32.70207415163502  4.71952486038208 39.89572906494141 34.21279144287109  5.775423049926758 39.89572906494141 34.44112014770508  5.372900009155273 39.89572906494141 33.43682098388672  4.985116925923335 38.97372286927905 33.4877438663203  5.352765083312988 22.77590942382812 27.04281044006348  5.690604209899902 37.01855087280273 30.52218055725098  6.004600771874833 37.4575206249816 29.07192080302629  5.828961339408133 36.43663974139247 29.30666107926708  6.880218833928257 36.57421721761881 29.46176893902981  3.633425951004028 32.3714599609375 27.86569023132324  2.868633985519409 32.54386138916016 27.28500938415527  3.074191093444824 31.71129035949707 27.63656997680664  2.969659886951098 32.04012095441279 28.461266620555  6.292283058166504 37.33126068115234 24.80221939086914  4.811277417411075 37.32880675354969 25.56240805024443  4.985408283977159 37.20650858490382 24.42665284955967  5.758734814541097 36.56301648096002 25.12800742182912  4.079413989049415 21.73354684061378 38.57134112651785  3.821542453978294 20.96043858238987 37.620859199282  4.215624783092452 20.70739845953955 38.84559600892599  7.79042911529541 39.89572906494141 32.70354843139648  8.005042629667143 38.88769096407182 32.99522305032323  8.35022209345825 39.00968503691148 31.75608924445164  7.340087447433166 39.03434663541629 32.01455266440504  12.23415459263954 36.20151238492761 38.74209659056173  12.11271368590476 37.25841259235489 38.46624637702504  12.99274069695774 37.38640991147809 37.60451348408547  12.24115146744932 35.81687328128364 37.44392213837411  12.07808971405029 37.1273193359375 39.89208984375  12.71823978424072 37.541259765625 39.89208984375  13.07087993621826 36.85919952392578 39.89208984375  12.89901732788809 37.57979817863148 39.1342096268643  2.222645044326782 34.57247924804688 23.95841979980469  3.054007053375244 34.39284133911133 24.12126922607422  3.021562099456787 34.95434951782227 23.48752021789551  2.668604342467219 35.37506095165993 24.13144914552331  5.888777453142604 28.2273549627222 35.45604724379769  5.076615027638488 27.05130344597354 35.4751327483924  5.832307799296164 27.46776235270935 34.97953299037847  5.900780841353572 27.25040759278336 35.83288872557735  9.285566329956055 32.53252029418945 34.36931991577148  9.930649757385254 32.68078994750977 34.29010009765625  9.820239067077637 31.91971969604492 34.00490951538086  9.354741488760673 33.34282957291482 33.61218147561178  7.559475322291052 34.45189939147296 36.82791008884215  7.755153062098199 34.84454909661983 36.05301345703631  7.105379734586073 35.78890504463607 36.57574099811055  7.947149897857428 35.74128692432379 36.56911049310622  8.292165152171812 34.78214512276334 28.91609571722865  8.292009238207653 34.38655989288392 27.90831885981528  7.033180224405327 34.28165244056078 28.31685999327215  8.021015179072245 35.48931353718709 27.88538981462811  10.14684009552002 36.4146614074707 31.83456039428711  9.79459546802253 37.35760154791061 32.892110563532  9.94150661316792 35.81027970892475 32.69298006661123  10.85594106361614 36.28799018705521 32.94312371016274  4.392319862514311 27.99618566888295 33.1749877713079  5.018724646214585 26.97503944843267 34.03234000246041  3.598783909271095 27.33850719487945 34.05814445645692  3.592821542226479 27.27339382727346 33.10772154113676  10.28514822154011 37.32072434271725 35.1535974285097  10.50361688749799 36.0451216941098 35.05670786375959  11.40458559395207 36.22584310025538 34.51865910383552  10.35402161144201 36.87610883858428 34.19117864910249  0.6044865846633911 35.16376113891602 31.11257362365723  1.209437012672424 35.21886825561523 30.72994995117188  1.065573307603014 34.52344363344904 31.58284574351512  1.024058621018444 34.15187645201566 30.70575584096068  4.151772022247314 27.92696952819824 29.46505928039551  3.149915931715603 27.36883058869289 29.46970516380989  3.8273506492499 28.0433347377074 30.25548053478293  3.934190199344972 27.09518784371115 29.89008938939636  10.15417003631592 31.96574020385742 38.55546188354492  9.103221234826265 32.67169440486214 38.96334445829024  9.185154589888494 31.75647229027274 39.0474561114106  10.07538900297062 32.44513264528776 39.09402675331973  4.283839393212419 21.86927113821401 35.46043194672033  3.793049230005229 21.96992564952866 34.48776648811075  3.345765287008231 20.96438305229269 35.70746795946881  4.270913328973124 20.70244941882676 34.6432925711987  4.45668888092041 33.71784973144531 27.46202087402344  4.059237957000732 33.83330154418945 27.04920959472656  4.853199005126953 33.80012130737305 26.95742988586426  4.561063611412495 34.58061649901178 27.35691818792818  4.85478687286377 35.4510498046875 30.98048973083496  5.26433277130127 36.19166946411133 30.74880027770996  5.819352127422157 35.79258839517333 30.0072205660091  6.162286084387244 35.49985497055579 30.98732068258752  4.229440212249756 37.02359008789062 28.92095947265625  3.64881706237793 36.07912063598633 28.95512008666992  3.415498971939087 36.7165412902832 28.47945022583008  4.320753083282077 36.45308512219552 28.29498984906074  8.014090538024902 30.25983047485352 33.44409942626953  7.325869401347481 30.79730189185997 34.17899993879117  7.126654429747535 30.01576337344509 33.6256297220183  7.677738412274985 30.95251953623218 33.28477981204976  11.55556964874268 37.59017181396484 30.88376045227051  11.53228367505403 38.60145225098564 31.27579787618374  12.43465541564692 37.66098365619336 31.70490579139284  11.52090292821689 37.26776588911662 32.0905996321673  15.19064044952393 35.15404891967773 39.16114044189453  14.85270268971245 34.49871129123085 38.23206896992813  14.37395165897822 35.37659331168328 39.07692604430589  14.61225671844837 34.25546112507687 39.25913956222166  6.508405208587646 28.78866958618164 33.09938812255859  6.055052326771573 30.45702823875488 33.55725516109677  6.723137890253584 30.3164601015919 32.52166947254749  5.702165225127715 29.74084713340705 32.43785043940476  11.10674897916946 35.76778939862101 38.01600541700276  9.556905687127182 36.65315168974988 38.1572709369995  10.31165302467759 35.21145860944284 37.1921889287503  10.83059887067911 36.76012490317076 38.15954466996499  6.387498943686861 33.53043846556908 30.96136099537632  5.877043294197345 33.93017158613503 32.73969125151745  5.04007576617898 33.29779689178557 32.09905922965166  5.606618849466992 32.75263539437184 31.41278627196055  7.942496394117085 32.62427799595233 29.72393428974663  6.953271208353476 31.90537663523808 29.43809960710607  6.501209961314501 33.13405672016118 28.92729775693848  6.463942050933838 38.06642150878906 32.17155838012695  6.317375183105469 37.856689453125 31.11429023742676  7.219888210296631 37.9752197265625 31.7673
[...]
<PointData  Scalars="p_O2"> 
<DataArray  type="Float64"  Name="p_O2"  format="ascii">1.0003921056385505e+02  1.0003278303080172e+02  1.0006340502134458e+02  9.9908547545769494e+01  9.9998350950659798e+01  9.9997860997131056e+01  9.9997997316530814e+01  9.9995519434560791e+01  1.0000520272761960e+02  9.9988559487488700e+01  9.9997537293282917e+01  1.0000449452677618e+02  9.9999587240064344e+01  9.9999505837360857e+01  1.0000132114850429e+02  1.0000031907078073e+02  9.9704366267101008e+01  9.9454184206521049e+01  9.8948825046451944e+01  9.8769288305602473e+01  9.9524808255240302e+01  9.7619817196181302e+01  9.8295943278102357e+01  9.9172694538023862e+01  1.0000836175031837e+02  9.9940992130350295e+01  9.9995769853979581e+01  9.9992563619011506e+01  9.9949293783283196e+01  9.9962081833092512e+01  9.9961861981815744e+01  9.9860102366456431e+01  1.0004139833215464e+02  9.9999411622923930e+01  9.9965767628005693e+01  9.9973117175159359e+01  9.7662455326119400e+01  9.4922043948170668e+01  8.9151373711038815e+01  9.6298065329487045e+01  9.9316409272527096e+01  9.9529281193847126e+01  9.9652190250071172e+01  9.9729771550665276e+01  9.9988013128066072e+01  9.9994173663554548e+01  1.0002351940294542e+02  1.0000661101821430e+02  9.9058430330214009e+01  9.8685402137344028e+01  9.7433460886444038e+01  9.8959701677325143e+01  9.8796834279533613e+01  9.7871253828146820e+01  9.8563959048031450e+01  9.6296153024189479e+01  9.8989785008313248e+01  1.0000429671753749e+02  1.0001092667444885e+02  9.9995547065083485e+01  9.9983916965903973e+01  9.9594607086286473e+01  9.9892411781027164e+01  9.9783075005180436e+01  9.9556405020623089e+01  9.9709756163566894e+01  9.5595919269707508e+01  9.2244557732851661e+01  9.3415454713172295e+01  8.8043875249883357e+01  9.9916153150127400e+01  9.9627692662136738e+01  9.9694396314768156e+01  9.9737595265161801e+01  9.9997544991535037e+01  9.9997991701669704e+01  9.9998645334703184e+01  9.9996595781868507e+01  9.9983211187247974e+01  1.0006177344354238e+02  1.0001740106222482e+02  9.9998140776152823e+01  9.9994687161605128e+01  1.0000044845932155e+02  9.9991375109765016e+01  1.0000022739157197e+02  9.9999926724197991e+01  1.0000356101744207e+02  9.9993858258979017e+01  9.9495558115641231e+01  9.9462715980171453e+01  9.9634317732772246e+01  9.9388529553594068e+01  9.9917693627546015e+01  9.9930015130819825e+01  9.9931033262962615e+01  9.9953909299009126e+01  9.9966656365375130e+01  9.9970512573989382e+01  9.9982509320405740e+01  9.9887508880531286e+01  9.9969194627058201e+01  9.9951836474336574e+01  9.9979217279611902e+01  1.0000061170533920e+02  9.9739795125124928e+01  9.9810321687395444e+01  9.9455989366588611e+01  9.9791934068876799e+01  9.9980281611930678e+01  1.0005337123691240e+02  9.9952171645378769e+01  1.0000192048100821e+02  9.9654773313848722e+01  9.9852748943738419e+01  9.9840742774102353e+01  9.9736362548531176e+01  1.0000560600137420e+02  9.9998303093768271e+01  9.9996394384071550e+01  9.9983562115234804e+01  9.3229584192315599e+01  9.1529101391160140e+01  8.5768346320528238e+01  7.3374224092433423e+01  9.8897334745059183e+01  9.6428658645098892e+01  9.8386205568435400e+01  9.8369266512025618e+01  1.0001979915923067e+02  9.9990171460501216e+01  9.9988032040879602e+01  9.9993102632959634e+01  9.9979565624577234e+01  9.9956572137496167e+01  9.9987782141792039e+01  9.9985686411009510e+01  9.8330170732966494e+01  9.8187595635790913e+01  9.9295407403708609e+01  9.7976269381720613e+01  9.9493983960075340e+01  9.9777447181121104e+01  9.9409926324994188e+01  9.9490811706889104e+01  9.9747243488592048e+01  9.9191187487182731e+01  9.9529361104334924e+01  9.9101963862157405e+01  9.9924675916244325e+01  9.9779049018218160e+01  9.9798497036212069e+01  9.9756308430238747e+01  1.0001845720472512e+02  1.0000220098832440e+02  1.0000505155027534e+02  1.0002274702512570e+02  9.9983660147423237e+01  9.9962395306152857e+01  9.9993057931610593e+01  9.9985754722767695e+01  9.9847520619109488e+01  9.9524552047194618e+01  9.9610273368811377e+01  9.9320832711181467e+01  1.0001060678254389e+02  9.9991076183750451e+01  9.9990672830723838e+01  1.0000112438403141e+02  9.8837905714108558e+01  9.9193442059184065e+01  9.8208013245245866e+01  9.8230634013534328e+01  9.9601128665534404e+01  9.9390360648172475e+01  9.9028182747400763e+01  9.9928215484196315e+01  1.0007364576493316e+02  9.9878254215534483e+01  1.0004544442828444e+02  9.4969435118677481e+01  8.7712241018457348e+01  8.3811437121415892e+01  7.6845168132406030e+01  7.5406955006046275e+01  7.9359697031263977e+01  7.0581551556642296e+01  7.4551686734592138e+01  9.9919787426093265e+01  9.9922243456676668e+01  9.9822140698062071e+01  9.9986301551212904e+01  1.0003470454847961e+02  1.0001805340173213e+02  9.9991737611462298e+01  9.9993459269670765e+01  1.0000285317550839e+02  9.9983490673084077e+01  1.0001398286295174e+02  9.9939468334950973e+01  9.9905605068912905e+01  9.9855611735159016e+01  9.9900908533134370e+01  9.9975913205901364e+01  9.9956427396152364e+01  9.9917207056968905e+01  9.9865518445027973e+01  9.9998173258020358e+01  9.9997323805993730e+01  9.9994474800450547e+01  9.9990894378323176e+01  1.0000110252483266e+02  1.0000170152171006e+02  1.0000351868357710e+02  1.0000012676921243e+02  9.9978259796541309e+01  9.9986627275416311e+01  9.9987174074976394e+01  9.9958074538714840e+01  9.9650014942884155e+01  9.9947405056913084e+01  9.9817054608507902e+01  9.7226574545204656e+01  9.4373253736525200e+01  9.6853372791122879e+01  8.9058713980968108e+01  9.9913014372294256e+01  9.9884873989024385e+01  9.9885415875902254e+01  9.9724230979427389e+01  9.9393941928819146e+01  9.9697204546830292e+01  9.9992672292215900e+01  1.0002922449865528e+02  9.9978752143790288e+01  9.9936308992535686e+01  9.7024794046695064e+01  9.2801984795912290e+01  9.6354486444102662e+01  9.4110257618057616e+01  9.6208483301232292e+01  3.9999999999999105e+01  5.5285439305835069e+01  5.3524860463380286e+01  3.9999999999999105e+01  3.9999999999999105e+01  3.9999999999999105e+01  3.9999999999999105e+01  3.9999999999999105e+01  5.2934155517650176e+01  6.2640161517916077e+01  9.9151069313226500e+01  9.9500525582689804e+01  9.8695028039993517e+01  9.9943092956817708e+01  9.9984686800600159e+01  9.9893112287997326e+01  9.9811920736156353e+01  9.2340102784576999e+01  9.5865866654865115e+01  9.2560847704767340e+01  9.0655787039164721e+01  9.9944564811691507e+01  9.9975854209469190e+01  9.9958228007461813e+01  9.9931760741748334e+01  9.9794981286927268e+01  9.9796442093206892e+01  9.9186729937761370e+01  9.9747745438883527e+01  9.8841573980466379e+01  9.9217676115884430e+01  9.8235188861500973e+01  9.5172160590971743e+01  9.9976485811688022e+01  9.9953545942319352e+01  9.9932214474305638e+01  9.4895246591062815e+01  7.6416729836296952e+01  8.7428248762160848e+01  9.3761778401154174e+01  9.9427608018561230e+01  9.9348491200664483e+01  9.9678157434411574e+01  3.9999999999999105e+01  9.1597649256602296e+01  8.0477195488149135e+01  6.0160001594492861e+01  7.0055713746074773e+01  9.9837453036767769e+01  9.9645762308642432e+01  9.9375977458691850e+01  9.9299516734711105e+01  9.9982681605660773e+01  9.9899262271511390e+01  9.9951552849200340e+01  9.9864599436693652e+01  1.0002408796858121e+02  1.0000025059316556e+02  1.0000030819835969e+02  9.9999799346259422e+01  8.6124216755170394e+01  8.4882320324829294e+01  7.8892086042190513e+01  7.0619515450280318e+01  7.8686660580351500e+01  7.8593676343139364e+01  6.3105188579599599e+01  9.9999787638603763e+01  1.0001908494979446e+02  9.8979270144816027e+01  9.9554362110634031e+01  9.8807607722706507e+01  9.8552863979400982e+01  9.8805751788953870e+01  9.8808184889056136e+01  9.9948565980947222e+01  9.9727598022943496e+01  9.9870051522766062e+01  9.9874317315758347e+01  8.9663200968422800e+01  7.7649222967269282e+01  7.9849682910063777e+01  7.5987373743427568e+01  6.0305331930023158e+01  6.9311942707386578e+01  6.5615549615354894e+01  1.0000172884331829e+02  1.0000313603073754e+02  1.0001052407601294e+02  9.8981667563584082e+01  9.9353256592795248e+01  9.8647325908265699e+01  9.9916426199384375e+01  9.9957243092949227e+01  9.9799985492378269e+01  9.9964341863342085e+01  9.9955684280678781e+01  9.9999905866559644e+01  9.9998099428900318e+01  9.9984661637755963e+01  9.9990654298663642e+01  9.9990447670599835e+01  1.0000386617167115e+02  1.0000718110282862e+02  9.9998867422682906e+01  9.9523831659071746e+01  9.9460365922796655e+01  9.8735031758338408e+01  9.9422949437529439e+01  9.9687965112176968e+01  9.9871274321100358e+01  9.9774198776109955e+01  9.9563795336948147e+01  9.7753180055815477e+01  9.5009854158937372e+01  9.5209913928192066e+01  1.0000593754766663e+02  9.9994807623820265e+01  1.0001017572577992e+02  9.9998065673080390e+01  9.9800627450326473e+01  9.9805010742641841e+01  9.9904329416980516e+01  9.9711570915452810e+01  9.9842075713276472e+01  9.9912578378539990e+01  9.9962731893588028e+01  9.9946110218021389e+01  9.9999435880541114e+01  1.0000097620274012e+02  9.9993738891671867e+01  9.9999860417195919e+01  9.9993065895787140e+01  1.0002042457782574e+02  1.0000109242732302e+02  9.9984983952419753e+01  1.0000027222396305e+02  9.9918413954582931e+01  9.9988176425547366e+01  1.0000060369049378e+02  9.9906469006137385e+01  9.9895038006356700e+01  9.9555361597242751e+01  9.9767197078737937e+01  9.9999352396437715e+01  9.9997545369504891e+01  9.9996595805138398e+01  9.9991590486785043e+01  1.0000715842124369e+02  9.9985133761260116e+01  1.0001192097560401e+02  1.0001188448127991e+02  9.7408201832658008e+01  9.6561679628414964e+01  9.2924491621571931e+01  9.3014365002723025e+01  8.8757363759840700e+01  9.9958840595013982e+01  9.9992012256151369e+01  1.0003228367758491e+02  9.9910811846351407e+01  9.9989314628291112e+01  9.9989541045709160e+01  9.9975868679867830e+01  9.9960519208057420e+01  9.3889929267719452e+01  9.4585594422862385e+01  9.1945794898078205e+01  8.5277200782996360e+01  9.9953994512090063e+01  9.9825079555795767e+01  9.9997448623098194e+01  1.0000009432490454e+02  9.9997441505190878e+01  9.9997654968544794e+01  1.0000288498845352e+02  9.9996938007503374e+01  1.0000198005311410e+02  9.9978821779103683e+01  9.9963158753528475e+01  9.9975219449960960e+01  9.9880672773468206e+01  9.9998693093018531e+01  9.9998121859341666e+01  9.9998239328683553e+01  9.9353557151558448e+01  9.9289762337607911e+01  9.7969316584849381e+01  9.9408753066086206e+01  1.0001872523381759e+02  9.9998755932911749e+01  9.5753189605239712e+01  9.7841152016463184e+01  9.0424448960568796e+01  9.5093541934555276e+01  9.9994811938528159e+01  9.9994453024408799e+01  9.9992538251812960e+01  1.0000201523424926e+02  9.9995265996426909e+01  3.9999999999999105e+01  4.9761718385555127e+01  5.8275258407693471e+01  3.9999999999999105e+01  3.9999999999999105e+01  6.1697864237230313e+01  4.8747586850271404e+01  5.5018231365327154e+01  6.9214501568287147e+01  5.5965686981694098e+01  9.9999508319029005e+01  9.9991292474386398e+01  1.0000128838388481e+02  1.0000061455022404e+02  9.9998978201479005e+01  9.9997818352335116e+01  1.0000255584647229e+02  9.9997655525159843e+01  1.0001075052520086e+02  1.0000767008592378e+02  9.9982154056663816e+01  9.9958315073454969e+01  9.9914053266587743e+01  9.9993226749085395e+01  9.9991552527665718e+01  9.9973738046127053e+01  9.9957368511897556e+01  9.9989977348548521e+01  9.9953502435726307e+01  9.9952865507901436e+01  9.9966251647199698e+01  1.0004584488453308e+02  9.9626379711109266e+01  9.9796046089104237e+01  9.9896698115763130e+01  9.9664206294865892e+01  9.9210200576686333e+01  9.9558830528120893e+01  9.8055720109080923e+01  9.9387604217217188e+01  9.9989794111188857e+01  9.9999411785640859e+01  9.9983725683173603e+01  9.9998001044472289e+01  1.0000021131205173e+02  1.0015477056623943e+02  1.0001012646342403e+02  9.9615217508228170e+01  9.9668861179016261e+01  9.9999693793466193e+01  1.0000553034961897e+02  9.9873790309453000e+01  9.9916336170623055e+01  9.9996201042775311e+01  1.0000006670788369e+02  9.9997996527799287e+01  1.0000272080060995e+02  9.9995013666222675e+01  9.9076026475290519e+01  9.9549666790232337e+01  9.9017465249282964e+01  9.8694826175733994e+01  9.9684561912182161e+01  9.9679692551114528e+01  9.9812993366564925e+01  1.0002977323039646e+02  9.9908741791427133e+01  1.0005465042231985e+02  1.0000224503122288e+02  9.9997692983035762e+01  9.9993102284297677e+01  9.9996097057528871e+01  9.9996834928363484e+01  9.9988200065024046e+01  9.9953076508149749e+01  9.9883938825402794e+01  9.9588681030847624e+01  9.9140678339256098e+01  9.7400202154247566e+01  9.5188754379768071e+01  9.9856450559002425e+01  9.9849297053097700e+01  9.9991445967909698e+01  9.9995458715642357e+01  9.9982942045557223e+01  9.4832979051868918e+01  9.1252055686051293e+01  9.3199079285195694e+01  8.4185305179900112e+01  8.5831706851195307e+01  8.2559993591941165e+01  7.3441292473500326e+01  9.9788166580695076e+01  9.9678654534888651e+01  9.9839580677511208e+01  9.9993289870665734e+01  1.0000495159861643e+02  1.0000847838625397e+02  9.9990108958816535e+01  9.9989925482223626e+01  9.9991839193289692e+01  1.0000004125099134e+02  9.9983195216615812e+01  9.7189440587136247e+01  9.7347551424352005e+01  9.3073447731768610e+01  9.6143892567237401e+01  9.6219284158269744e+01  1.0000394019996614e+02  9.9998004307517263e+01  9.9998891954016585e+01  9.9995052630413099e+01  1.0000035711618824e+02  9.9995901487161277e+01  9.9996122037842710e+01  9.9998134534555888e+01  9.9158010717833434e+01  9.9531194286264835e+01  9.8832878669052334e+01  9.7809916498019106e+01  9.9102299466669706e+01  9.9999275592067107e+01  9.9721448517384360e+01  9.9798502150753436e+01  9.9948246840076550e+01  9.9922409346156257e+01  1.0007964973769420e+02  9.9655169525759433e+01  9.9362886575098671e+01  9.9788028697251562e+01  9.9789121328183327e+01  9.9988975024281757e+01  9.9994375336545446e+01  1.0000846867588510e+02  1.0001164265262187e+02  9.9445247227550283e+01  9.8606109987167855e+01  9.9820421676122876e+01  9.9923135750869093e+01  9.9723155628333089e+01  9.9783880626832755e+01  9.9602795805666560e+01  9.9224352658975235e+01  9.9394351900469985e+01  9.8451363074540964e+01  9.9988742656558628e+01  9.9995428215743203e+01  9.9987003308629653e+01  9.9977939016196089e+01  9.7956234917671864e+01  9.9285706357864512e+01  9.8372286420338568e+01  9.6008117641996790e+01  9.7729741039853280e+01  9.5165777788951132e+01  8.7913575457399801e+01  9.9901041141636028e+01  9.5772698325750170e+01  1.0000016367893706e+02  9.9999492493543642e+01  9.9962859310107916e+01  9.9936727512868003e+01  9.9886178633737799e+01  9.9862592891122816e+01  8.5914139831460304e+01  7.9789278297866730e+01  8.3358538484235865e+01  6.7518181693289421e+01  7.5666943477378609e+01  9.9137779938993177e+01  9.8187382587033866e+01  9.7880794125462572e+01  9.5691562900575931e+01  9.9882177070646378e+01  9.9770590037609182e+01  9.9910669051707757e+01  9.9864294468830209e+01  9.9991389938145105e+01  9.9993520427649983e+01  9.9980757216160526e+01  9.9318217196598312e+01  9.9788770675039601e+01  9.9625969175987379e+01  9.6350781189285968e+01  9.5436553108410877e+01  9.9995293805998330e+01  9.9994702507468219e+01  1.0019465774198039e+02  9.9999873044163621e+01  1.0000992483284800e+02  1.0001284551177488e+02  3.9999999999999105e+01  6.0077311601520869e+01  5.3627026888401531e+01  6.0014108313262916e+01  9.2112482230167984e+01  8.2641035125371999e+01  7.2064788578582849e+01  7.6447931360272420e+01  6.6601212600145686e+01  9.9993006167693707e+01  1.0000676774387217e+02  9.9989050239460965e+01  9.9998255343418236e+01  9.9999879122928832e+01  1.0000002636650073e+02  9.9999530586200621e+01  1.0000003455193091e+02  3.9999999999999105e+01  5.8826686004307184e+01  7.6655127565243433e+01  3.9999999999999105e+01  8.9279786125265559e+01  7.7898249559810182e+01  7.4985929125284855e+01  9.9995228725327863e+01  9.9996458832090070e+01  9.9997077536681005e+01  9.9988338975608883e+01  8.7124807769926861e+01  9.2131798039953594e+01  8.5112963703921224e+01  8.5171734148132316e+01  8.0635976949269704e+01  8.0239414206532288e+01  7.3912917356314779e+01  9.9560121437152759e+01  9.9260244901356614e+01  1.0000696021930045e+02  1.0000186799405293e+02  1.0000891870450499e+02  9.9981219980167126e+01  9.9960063334901164e+01  9.9965291662751000e+01  9.9921974513915174e+01  9.9975536741789995e+01  9.9973084550827252e+01  9.9926153010640874e+01  9.9942296994438209e+01  9.9997141141253650e+01  9.9991512301664827e+01  1.0000328338108869e+02  9.9956990390556939e+01  1.0000781306163388e+02  1.0000038440129381e+02  1.0000037208498968e+02  9.9996706240667308e+01  9.9941660758150832e+01  9.9976916100829897e+01  9.9979265463114075e+01  9.9994967256594009e+01  9.8343762490030173e+01  9.7150551687183381e+01  9.9996576826770252e+01  1.0001752702366832e+02  1.0000010987893367e+02  9.8714517258183974e+01  9.7358925069239064e+01  9.4079735426763108e+01  9.3325402915851598e+01  9.6447182484635050e+01  9.6549228459772365e+01  9.9976714039556896e+01  1.0002818111580459e+02  9.9992879346847303e+01  9.9691958335697223e+01  9.9164713845410688e+01  9.9184887589776537e+01  9.9041185105404153e+01  9.6300968708326550e+01  9.7985495983596977e+01  9.7728987531651470e+01  9.7710284193674696e+01  9.9940767800135063e+01  9.9939829847820604e+01  9.9999277814598045e+01  9.9999191745167778e+01  9.9938751675355675e+01  1.0011219042530611e+02  9.9989097515726257e+01  9.9999549310455450e+01  1.0002059585094609e+02  9.9993650553770280e+01  9.9744998728053957e+01  9.9732771463168575e+01  9.9809295430283711e+01  9.9794150749966505e+01  9.9988136975116049e+01  9.9994346588994347e+01  9.9982683928503320e+01  9.9621662186980913e+01  9.9528691059009475e+01  9.9700080203284074e+01  9.8744413573452249e+01  1.0000168477315476e+02  9.9999437964930706e+01  9.9248878859612205e+01  9.9176684585776812e+01  9.9525571303188030e+01  9.8793555010274858e+01  9.9995549318086873e+01  9.9994791926337513e+01  9.9992816494431707e+01  9.9976933253035057e+01  9.9925609069003073e+01  9.9864169336639577e+01  9.9950932795379430e+01  1.0000673961790602e+02  8.7950466594731168e+01  9.9997186063497509e+01  9.9999865275828611e+01  1.0000109367219338e+02  9.9993033697304980e+01  9.9995738762694273e+01  9.9878155521522501e+01  1.0005936295116486e+02  1.0004496967702774e+02  9.9996478096858212e+01  1.0001001752422310e+02  1.0001301163719647e+02  9.9986815121484639e+01  9.9958147762678877e+01  9.9954980688147117e+01  9.9968986087235606e+01  1.0001610896691319e+02  9.9979992748443209e+01  9.9894711524110903e+01  9.9982605975483764e+01  9.9993382071470805e+01  9.9991642941269916e+01  9.9561594115115057e+01  9.9199074668614458e+01  9.9354794499586859e+01  9.9087884410517930e+01  9.9774130971483814e+01  9.9716410027752090e+01  9.9740824055276107e+01  9.9569182226173169e+01  9.9644251180509158e+01  1.0000583941192889e+02  9.9988657768890135e+01  9.9994599996195660e+01  9.9988738229357708e+01  8.0949441332012185e+01  9.0029391769824201e+01  8.6169379951061018e+01  8.3808857354250520e+01  7.8778071084336560e+01  8.6408610535016010e+01  9.9840260496458271e+01  9.9813236609760196e+01  9.9643802738988683e+01  9.9737532659418534e+01  9.9371962065084674e+01  9.9963705693387013e+01  9.9985710785542935e+01  1.0007674013759251e+02  9.9971662618201023e+01  3.9999999999999105e+01  8.2077544988633278e+01  7.4072326425990994e+01  6.6635182586783685e+01  6.4050223492031066e+01  8.0938908672044647e+01  8.1465419019247761e+01  8.8824124156606928e+01  9.9844760663655208e+01  9.9795891128812187e+01  9.9996271767953857e+01  9.9994634904106434e+01  9.9995277022709686e+01  9.9991718600561668e+01  9.9994877643720912e+01  9.9954145536547912e+01  1.0000235177639887e+02  9.9989695026997339e+01  9.9967370186358352e+01  9.9977933946558238e+01  9.9971670569809987e+01  9.9979774550521753e+01  9.9931458977011602e+01  9.9998847289065480e+01  9.9999809188459395e+01  9.0953732397679559e+01  8.2853919872079857e+01  7.7454511845661045e+01  8.0734408520453428e+01  8.9122767968501051e+01  7.5110597467471138e