<?xml version="1.0"?>
<VTKFile type="UnstructuredGrid"  version="0.1"  >
<UnstructuredGrid>
<Piece  NumberOfPoints="4065" NumberOfCells="15968">
<Points>
<DataArray  type="Float64"  NumberOfComponents="3"  format="ascii">18.05801010131836 1.980746030807495 0.1048400029540062  18.53083992004395 1.277719020843506 0.1048400029540062  18.64771047610651 1.969090266439979 0.9905686647582427  17.47012780768676 1.701508074931415 0.7608204070168626  18.67819976806641 2.324219942092896 4.370869159698486  18.48961067199707 3.032886981964111 3.544179916381836  18.18413937052957 1.500863480860389 2.923404691430454  19.3941100060449 2.15420994619029 3.251187908255845  18.57653045654297 3.548114061355591 2.937088012695312  18.19074058532715 3.605962038040161 1.984985947608948  18.16083721739016 2.635767682785813 2.230788486273345  18.90897650609069 2.937192512807989 2.682797071564693  18.23563003540039 0.4575099945068359 1.116541028022766  18.15815925598145 0.7553780078887939 0.1048400029540062  18.99453926086426 0.6830419898033142 0.6763430237770081  18.80117988586426 2.011250972747803 0.1048400029540062  18.99025523670714 2.884090295581587 1.606994576452914  19.06889084034789 1.776776247589474 2.181307911464082  17.69702403537451 2.369420829175438 1.28266923367582  18.49333000183105 0.09558500349521637 3.145654916763306  17.55331993103027 0.09558500349521637 2.723233938217163  18.33020973205566 0.09558500349521637 2.126312971115112  17.7039909362793 2.721751928329468 3.685894966125488  17.57551956176758 3.127937078475952 2.735167980194092  17.47178077697754 3.165196895599365 1.776800990104675  17.28600007003664 2.460187954552323 2.315593024504958  19.62056922912598 1.653440952301025 1.37977397441864  19.53602981567383 0.8964750170707703 1.017917990684509  19.25447082519531 1.347391963005066 0.6034340262413025  18.95021726575598 0.9627739965111395 1.63069194177998  19.1392685311078 1.073145216937609 3.529401935230745  18.02889244172662 0.9904893333176586 4.353968125246128  19.42266082763672 2.115087985992432 0.651075005531311  17.92811856106248 1.292944965245128 1.750345943397716  19.12076950073242 0.09558500349521637 2.51262903213501  17.73347091674805 3.189533948898315 1.113216996192932  18.20400047302246 0.09558500349521637 5.193009853363037  18.60774993896484 0.09558500349521637 4.235197067260742  19.14717383116193 0.9402977468669977 4.643675149222178  19.47546005249023 0.09558500349521637 3.42432689666748  18.26956939697266 2.860912084579468 0.1048400029540062  19.68767929077148 0.7412819862365723 2.43917989730835  17.22347068786621 2.402237892150879 0.1048400029540062  17.59886932373047 1.397984027862549 0.1048400029540062  16.98605918884277 2.993726968765259 1.170645952224731  18.6827392578125 1.28498101234436 5.088818073272705  19.68148040771484 0.9721599817276001 1.721393942832947  19.22723960876465 0.09558500349521637 1.543951988220215  17.62359046936035 2.213248014450073 4.304525852203369  17.9892406463623 1.736614942550659 4.777002811431885  17.6175594329834 0.09558500349521637 3.674330949783325  17.64662933349609 0.09558500349521637 4.545790195465088  14.05195999145508 16.16622924804688 20.84823989868164  14.62289224491885 16.0608937167411 21.49618116523181  14.95522656816785 15.97485425167054 20.29802367234113  14.41202729757972 15.20424085642448 21.10154860110938  13.21471977233887 12.39957046508789 21.10393905639648  13.09875011444092 12.66100978851318 20.18302917480469  13.647780418396 11.77035045623779 20.16972923278809  13.77790591784053 12.93369995863631 20.39867627875822  1.139879941940308 0.4485709965229034 18.85972023010254  1.997315992178495 1.311055128467351 19.24532383727413  1.019990206213819 1.463177743439049 18.59974295878038  1.825091052565076 0.9830997586844048 17.72016247209788  8.4456693135888 5.791196188988421 19.10592273337171  9.624710113620052 5.237967671938738 18.7043659561359  7.613506116937066 4.931071552259016 17.7668323662298  8.09777957171627 4.159760009283453 18.81990084457015  14.32017040252686 11.19694042205811 22.20516014099121  14.27880954742432 11.30072021484375 21.50918960571289  15.20695972442627 11.02727031707764 21.62244033813477  15.03485503860558 12.02144790998002 21.95256073430797  8.940302848815918 0.7147560119628906 16.03986930847168  9.217979011729867 1.597587936882525 17.18223946715351  9.510662612912466 0.8223783997239902 17.01129117687044  9.010015060562051 1.733615158645657 15.85271708467179  0.09939099848270416 3.763828992843628 19.26164054870605  0.09939099848270416 3.295326948165894 18.5627498626709  0.09939099848270416 2.763430118560791 19.20932960510254  0.967203375886609 3.397271690133347 19.46706913835168  5.329134704606362 2.582508146865025 20.44145784794924  4.842428343471431 2.510663782696861 19.09658317267691  3.836994418396734 2.780266973471112 20.07080841060272  4.817673274997552 1.600923414073006 19.51605223135586  15.62314033508301 9.279568672180176 20.6390495300293  15.1764497756958 8.51282787322998 20.8522891998291  15.1841402053833 8.879060745239258 20.0590705871582  16.04803790541389 8.487604472288471 20.9528036205564  2.365955253789582 2.797549157538623 19.36446979272524  3.705748558423872 3.246092833608456 19.27368192021894  3.443680887707209 1.634560181160497 19.3423680179007  8.595169455801029 7.852219519654509 18.660712046847  9.29263276761135 7.386151028155346 19.46377377504915  8.381316448251381 8.263177934831441 19.12610002305357  7.962681107299153 7.10100397419861 19.1011762016796  2.591345071792603 3.855334997177124 17.51206970214844  3.221782922744751 3.592618942260742 17.67206954956055  3.15393590927124 3.408785104751587 16.88787078857422  2.623121664687488 3.220452551268415 18.07910363929992  12.38080024719238 2.130063056945801 16.97801971435547  11.01600279157865 1.804456455246665 16.28183228933307  11.06256375002312 2.255109907704997 17.22830306481255  11.98540076605204 1.076013365358089 16.83010096477931  3.535202026367188 1.733551025390625 16.6702995300293  3.061235904693604 1.45680296421051 16.24383926391602  2.806792273604494 1.487814648962654 17.33153673973744  2.740850596422345 2.483017075599493 16.42043194193644  6.546891212463379 4.184482097625732 16.38859939575195  5.997289180755615 3.628748893737793 16.78034973144531  6.392899990081787 3.232497930526733 16.06938934326172  6.743455580945898 3.353279394451257 16.97635080050223  1.977631009980275 3.21756477856591 17.20716272025636  2.170706965437491 2.193001445418511 17.85033568530839  3.334015604360165 2.488174863037718 17.49525296461228  2.854818423389662 1.793882792111278 18.28277534648753  6.496005058288574 2.078636884689331 17.76985931396484  6.719028949737549 2.228204011917114 17.13876914978027  6.965641433569722 2.743634462053826 17.73677593031027  5.996249613558295 3.182661673806612 17.71684578033832  13.05562019348145 0.7588800191879272 16.27358055114746  12.48985958099365 0.09558500349521637 16.39450073242188  12.14101028442383 0.09558500349521637 15.77245044708252  12.93126964569092 0.09558500349521637 15.59552001953125  12.97929954528809 13.09409046173096 21.69018936157227  12.95905017852783 13.10840034484863 20.82719993591309  14.21471760109735 12.93083621477835 21.53361459942096  6.601723194122314 5.433692932128906 18.66887092590332  6.847246171458443 4.416505968543233 19.43181888429769  7.512988779434716 5.687907487096266 18.70173247137625  7.331934475874786 5.414845593008094 19.8979102800823  13.00533962249756 13.87880039215088 21.17958068847656  14.16515170883262 14.17777389951262 20.72751533802535  14.00136038986489 14.24135753335883 21.78346983214963  7.629497051239014 1.666368007659912 18.3990306854248  8.132332801818848 1.379050016403198 17.76185035705566  8.740003363344497 2.139430947039394 18.70623575757025  8.160143578225069 2.697050461856012 17.68932494160125  15.01095008850098 8.003704071044922 20.18530082702637  15.71757784895357 7.564080363863974 20.48184489050454  15.82498732792421 8.347935438106164 19.0229179841174  15.88774013519287 11.54424953460693 21.22311973571777  14.58423606444002 11.98891019286955 21.08106534693356  1.181317916235593 2.912760015140726 20.51823871174062  0.8459976128013316 2.112316834654867 19.39993286055113  3.807805061340332 0.9333279728889465 18.36701011657715  3.32124400138855 0.7921419739723206 17.78400039672852  2.653390905295388 0.7910028170713692 18.47009228810084  7.686372703604512 3.603086935854441 17.65293182245795  8.77981443468348 4.198132449964764 17.07133280335378  3.614480018615723 1.25547194480896 17.38620948791504  2.678483009338379 0.9045450091362 16.79126930236816  2.942235946655273 0.6880769729614258 17.45624923706055  1.274427919197183 3.029860506368534 18.45009442208228  0.09939099848270416 2.276487112045288 18.44313049316406  9.865502281270128 2.931839453069546 17.06140825190948  8.144045482233524 2.696555397722174 16.33803613119682  5.962176447439857 3.598704518845318 19.43748929961685  4.594783144025911 3.65120435878885 19.90289187070916  15.18369007110596 13.81494998931885 21.78401947021484  15.29286003112793 14.54578971862793 21.10700988769531  14.98060035705566 14.81105995178223 21.65784072875977  9.325911913346761 8.331176490503088 19.53888453502897  1.713073015213013 0.09558500349521637 19.4819507598877  2.118851900100708 0.09558500349521637 18.65327072143555  4.649247169494629 3.28253698348999 17.12866020202637  4.267333030700684 2.38518500328064 17.01436996459961  4.992527961730957 2.159081935882568 17.40455055236816  4.464147610365829 2.858214895880014 18.00398780094844  6.309937000274658 4.585632801055908 17.32242965698242  7.417773441237275 4.086431122830675 16.62925914924631  6.637522542723564 3.945903240897743 17.72463647235444  6.775537967681885 6.317317962646484 19.14332962036133  6.988245010375977 6.051545143127441 18.14118957519531  15.52855968475342 9.099478721618652 21.34094047546387  16.1943302154541 9.724733352661133 21.05964088439941  16.71417571957836 9.21204103631711 21.13312319509605  13.68426036834717 15.41777992248535 21.32840919494629  13.70575046539307 15.269319534
[...]
<PointData  Scalars="p_O2"> 
<DataArray  type="Float64"  Name="p_O2"  format="ascii">1.0012651224888387e+02  9.9955303062691399e+01  9.9840170002583662e+01  9.9702214705078475e+01  9.9776083074896974e+01  9.9530614041935806e+01  1.0033027962306127e+02  9.7804288453325000e+01  1.0052494028847605e+02  9.9481758626304185e+01  1.0171481994100756e+02  9.9496641866924875e+01  9.9377219842022768e+01  1.0053541054980843e+02  1.0134150409871958e+02  1.0088269991358008e+02  1.0001532537653527e+02  9.8376647277596504e+01  1.0011481067685132e+02  1.0098604527531361e+02  9.9164583235344267e+01  9.9849319440912467e+01  1.0080683394920341e+02  1.0042413639089601e+02  9.8922488151693869e+01  9.8581538899350363e+01  1.0175983023268857e+02  9.9055038218487738e+01  9.9391512279283489e+01  9.9842804218631585e+01  9.8600019357255803e+01  9.8889475320590350e+01  1.0057531318539043e+02  9.8908202045532875e+01  1.0152904977737754e+02  9.9305554291573685e+01  1.0302151486519118e+02  9.8720061629761645e+01  9.9613850158885384e+01  1.0118923989226845e+02  9.8794551726692973e+01  9.8579837554212133e+01  9.9270196395942889e+01  9.9456545878392319e+01  1.0243274867312753e+02  1.0026340943290269e+02  9.8867654196207724e+01  9.9253458010151164e+01  9.9121933829050860e+01  1.0123605190725355e+02  1.0009597525593756e+02  9.9953774053252332e+01  9.9868005970478862e+01  1.0016318043847662e+02  1.0001461671537515e+02  1.0025015371656472e+02  1.0021953911875839e+02  1.0004900397765600e+02  1.0009156760802553e+02  1.0018271180099514e+02  9.3146121670489521e+01  8.3054631336048530e+01  7.1461278478385154e+01  8.8200283783421824e+01  9.9922850627591643e+01  9.9564310514645229e+01  1.0060986602147067e+02  9.9842825483564397e+01  9.9857582296062290e+01  1.0079374466962072e+02  1.0020980749247693e+02  9.9259277846532044e+01  9.9913931352701752e+01  9.9628430200077133e+01  9.9888223698307286e+01  9.9888669073718546e+01  4.0000000000000000e+01  4.0000000000000000e+01  4.0000000000000000e+01  6.8106879608239311e+01  9.7610103316036117e+01  9.7020256747684186e+01  9.3950608187491994e+01  9.7986761951020696e+01  9.6370706085588623e+01  1.0058567817259249e+02  9.9125059332953001e+01  1.0061591665514831e+02  8.4529866441541557e+01  9.5450904937855114e+01  9.2279487563291170e+01  9.9869376893364759e+01  9.9665164967454743e+01  1.0008354180541149e+02  1.0055611702709672e+02  9.5608689754165425e+01  9.5285236639586898e+01  9.6824347638797875e+01  8.9579668694734650e+01  9.9947806543199064e+01  9.9661927849009317e+01  9.9745687179213775e+01  1.0013866963508120e+02  9.4145592871825244e+01  9.6496015854669849e+01  9.2155581404914699e+01  9.0706700820677440e+01  9.8833327343015483e+01  1.0087707110988033e+02  9.8124797533976221e+01  1.0171820143240083e+02  8.4182092889985569e+01  8.2701273149607161e+01  9.1784757695500915e+01  9.0479113049015453e+01  1.0003293604449219e+02  9.9682065866475952e+01  9.9081203660925937e+01  9.9756185638038701e+01  9.9969107554640061e+01  9.9972874044991357e+01  1.0007119168388998e+02  1.0008360844671287e+02  1.0000420501730433e+02  1.0003678641588372e+02  1.0043700489331064e+02  1.0002879513241611e+02  9.9704607422194357e+01  9.9915828353651293e+01  9.9921624954797707e+01  1.0002456174827907e+02  9.9897630352296687e+01  9.9982403782800489e+01  9.9671185937595112e+01  9.9139048143997059e+01  1.0014167222421051e+02  1.0008051842792183e+02  1.0043460089593695e+02  1.0077546516324139e+02  9.9464667133203989e+01  1.0019141926332797e+02  1.0067388332250785e+02  6.6828225392872980e+01  6.0241813349721816e+01  9.7945528116675504e+01  9.6503663362707002e+01  9.2629125004549479e+01  9.9637763905032699e+01  9.9770558464548444e+01  9.7203970697275423e+01  9.5601670079804322e+01  9.6376742717697667e+01  7.1645919043715068e+01  4.0000000000000000e+01  1.0008549667731296e+02  9.9831112616362461e+01  9.8920759631215063e+01  9.7588384303995994e+01  1.0016638213711099e+02  9.9944940221492743e+01  1.0030515217617598e+02  9.9650960571080716e+01  9.6723726478038444e+01  9.6046590799809948e+01  9.6101812230203450e+01  9.9527466552889720e+01  9.9560790443332664e+01  1.0029250677901189e+02  9.9691822939331544e+01  1.0015096050779498e+02  9.9768757909585304e+01  9.9518628737970758e+01  9.9050706284937860e+01  9.9535621829648960e+01  9.8621809381318798e+01  1.0051024744462342e+02  9.9796769177362492e+01  1.0013303820035651e+02  1.0065308365737958e+02  1.0005698861931258e+02  9.9804714493196400e+01  1.0018032599128729e+02  1.0025744898924974e+02  9.9866161697284056e+01  1.0040777578076514e+02  9.9993962548446973e+01  1.0012697517008731e+02  9.9961355533120056e+01  1.0007705300656039e+02  1.0001099948730291e+02  1.0009308746216414e+02  1.0001946343327558e+02  9.4314513221592676e+01  8.5024817788405386e+01  1.0035785359636004e+02  1.0026459815840033e+02  9.8882788523320386e+01  9.9883794198649838e+01  1.0026711463509037e+02  9.9753324226014243e+01  9.9444235493231986e+01  9.7754599502644226e+01  9.7848674957098510e+01  1.0050689594173518e+02  1.0031836855970037e+02  1.0017492948274992e+02  8.8201284535820534e+01  4.0000000000000000e+01  1.0002261509138191e+02  9.9659422511021518e+01  9.9037769572085182e+01  8.3023397828315623e+01  6.7045055383429485e+01  9.3487449473904888e+01  9.9769383061920607e+01  1.0045968619106681e+02  9.3513998816968055e+01  9.0942017723667760e+01  9.6873626577264943e+01  9.8112902443162284e+01  9.9091558786069626e+01  9.4914837543994878e+01  1.0026539275438046e+02  9.9737317932260353e+01  9.9031767710482583e+01  9.9457027366105237e+01  9.9924920806694431e+01  1.0026253092334618e+02  9.9800796667249386e+01  1.0007659451145572e+02  9.9783982155957204e+01  1.0008012951439817e+02  1.0032038801939876e+02  9.9932046706011690e+01  1.0092046611169950e+02  1.0034764233706630e+02  9.9729049852473267e+01  9.8550297176161223e+01  1.0021787329499254e+02  9.9860301614067097e+01  9.9658662197075301e+01  1.0070866176829166e+02  9.9684150074080989e+01  9.9997959349742743e+01  1.0160283528849479e+02  9.9488474611199109e+01  9.9915879108147536e+01  9.9792947881743686e+01  1.0005813077215342e+02  1.0025585270105321e+02  1.0006688487656814e+02  1.0026488444718548e+02  1.0024468097306888e+02  1.0012328511901497e+02  9.9964202245464733e+01  9.9898273437086985e+01  1.0017241206519060e+02  1.0000814925566054e+02  9.2412490024867125e+01  9.3971897812213797e+01  9.9867541046646210e+01  9.6703150512133206e+01  4.0000000000000000e+01  9.0336009270893726e+01  9.9635360829520707e+01  9.9426063547232289e+01  9.9429624442268974e+01  9.9727997303306367e+01  9.9729501642579919e+01  9.9836662950368350e+01  9.9386228421955749e+01  9.7273826917525000e+01  9.7198508251193019e+01  9.5579995353954033e+01  9.8571045109879464e+01  1.0009804469291893e+02  9.9864621506682724e+01  9.9592485591639061e+01  1.0003186859809929e+02  9.2559359600933618e+01  9.9580287619819288e+01  9.9726854738635851e+01  9.9972942157888710e+01  1.0008760603442391e+02  4.0000000000000000e+01  7.0787912478652416e+01  9.8146989996983748e+01  1.0220878240837419e+02  9.3290673419434412e+01  9.9123040392683535e+01  9.9940453846480352e+01  9.9700789997566915e+01  1.0044953456793051e+02  9.9924362354576616e+01  9.9977555196912718e+01  9.9525313227484730e+01  1.0041235781553831e+02  9.9125468361339983e+01  9.9504262088113791e+01  9.4803986544996036e+01  9.9350810746328250e+01  9.9275608653498892e+01  9.8730198800246868e+01  9.9945219816114260e+01  1.0008821718311717e+02  9.9969016301385381e+01  1.0029121169314163e+02  1.0001071087386190e+02  9.9677407707826120e+01  9.9754464416280385e+01  9.9178730370315151e+01  1.0137865567552501e+02  9.9430371510518441e+01  9.9483912840003327e+01  1.0129327109687233e+02  1.0031313631215563e+02  1.0009316448129672e+02  9.9370575737906748e+01  1.0032148042320291e+02  9.9555334665909299e+01  9.4959882274412067e+01  9.9963744962711502e+01  9.9891361800594140e+01  9.8702681606968497e+01  9.7611036849793450e+01  9.7685777169662543e+01  9.9268836512349083e+01  9.9720540618511535e+01  4.0000000000000000e+01  4.0000000000000000e+01  9.9921547957409160e+01  9.8438653768866885e+01  1.0015344990421140e+02  9.9727280108408934e+01  9.9651646068092035e+01  9.9048501502836572e+01  1.0116904690146433e+02  9.9903294988759356e+01  1.0018997441413305e+02  9.7772936533323517e+01  9.9956711011268411e+01  9.7359442344941684e+01  4.0000000000000000e+01  1.0026650924173896e+02  1.0002196294539094e+02  9.9545492386220459e+01  9.9996655358717177e+01  9.9803508912637639e+01  9.9833529011851368e+01  9.9679073634545176e+01  8.4632483980760426e+01  9.9863323357079608e+01  1.0095284016119551e+02  9.9262112428582569e+01  9.9436941854914707e+01  1.0002926267279494e+02  1.0005846010527266e+02  1.0009959469354581e+02  8.7448007292040984e+01  8.6465310938519693e+01  1.0033873752519776e+02  9.7893772240359212e+01  9.8134447435526653e+01  9.3788985884703706e+01  9.9971553770884626e+01  1.0007053203993134e+02  9.9618828750560482e+01  1.0029380125827323e+02  1.0072078149589917e+02  9.9634420819679093e+01  9.9818002273247203e+01  8.2250047162479134e+01  9.9831648617653286e+01  9.9088604381720117e+01  1.0026093338658804e+02  9.9941142317090694e+01  9.9670944138417724e+01  9.7717868670265773e+01  9.9411277565372089e+01  9.9794286892890256e+01  9.9933512398566648e+01  9.9875150270542846e+01  1.0092812176060862e+02  1.0159267954896856e+02  1.0012808339536285e+02  9.9717896006813064e+01  9.9541171037193521e+01  1.0112348618629827e+02  9.9967314899185610e+01  9.8303738876939875e+01  9.9928818221554877e+01  1.0092085809027238e+02  9.9510312321255057e+01  9.9985729583978895e+01  9.5182402216223622e+01  9.9640243670222716e+01  1.0035286204449685e+02  1.0014835616340159e+02  9.8115460758635294e+01  1.0059230198189928e+02  1.0036837932828311e+02  9.9168562729234608e+01  9.9701291940724303e+01  9.7281933475589383e+01  9.7818003075145739e+01  1.0032469792558700e+02  1.0058596982945423e+02  9.9941770805102109e+01  1.0057043264713505e+02  9.9348174094541619e+01  1.0145901283486509e+02  9.8942878105611754e+01  9.7698273764963275e+01  4.0000000000000000e+01  9.9961839575407893e+01  1.0007880879718476e+02  9.5996229257252509e+01  8.3872356968046475e+01  1.0012529418985149e+02  9.6970490971146631e+01  4.0000000000000000e+01  4.0000000000000000e+01  4.0000000000000000e+01  6.1231462030339976e+01  9.9454599585812346e+01  9.9383469803848769e+01  9.9204835935673586e+01  9.8323416624889688e+01  9.8598873897435496e+01  9.8755150918905215e+01  9.9151841710694782e+01  9.7066217632203504e+01  1.0065753999869857e+02  1.0003041473867019e+02  9.9931742548903259e+01  1.0037764524921968e+02  9.7805173029357022e+01  9.7469951779672840e+01  9.7341615940504781e+01  9.5584070747375776e+01  1.0005412473482730e+02  9.9992447075462351e+01  9.9941508905233476e+01  1.0006667361830441e+02  8.6530768378957461e+01  9.4337552522530302e+01  9.5223574655299956e+01  9.1134105030831151e+01  1.0020625851309323e+02  1.0042776649213003e+02  9.9950742635378830e+01  1.0029609553738511e+02  9.9935858899434436e+01  9.9994562635534450e+01  9.9772384490919109e+01  9.9876614979548009e+01  8.7502196977052165e+01  8.9424419528220767e+01  8.9654841242604775e+01  6.8665849988217090e+01  9.9086385701242421e+01  1.0018098286392330e+02  9.9954003429338670e+01  9.9222638264692776e+01  1.0048077203803638e+02  9.9566631567372440e+01  9.9235890402163662e+01  9.9062169123436774e+01  9.8862717775813024e+01  9.9236143079509702e+01  9.9269233800694096e+01  9.8075611197159859e+01  9.6676825833808749e+01  9.7577921764698857e+01  9.1585325564460931e+01  8.7366250871178792e+01  9.9889800324036131e+01  1.0020749661864883e+02  9.9952270041994979e+01  9.9749657487668557e+01  9.8999494193726491e+01  1.0010506765652174e+02  9.7273534246498798e+01  9.8253667674922781e+01  9.3680116499183939e+01  9.3408535428930989e+01  9.6811988427373151e+01  9.7129326135670752e+01  9.8554091717116393e+01  9.6486977457017005e+01  9.8935375589381408e+01  9.8782036480490177e+01  9.9544117600648377e+01  9.9243305053338773e+01  9.7796872581434314e+01  9.5951123856577723e+01  8.8728977568995703e+01  9.3956588506797175e+01  9.9812755597342488e+01  1.0030446350215375e+02  9.9796223766431879e+01  9.9493533654707932e+01  1.0015885248845858e+02  9.9950703990337402e+01  9.9891044591118117e+01  9.9601064208471897e+01  9.9968352551796642e+01  9.9495975237288079e+01  9.9068919518147837e+01  9.9855744397771787e+01  9.9881036379197283e+01  9.9589803514305729e+01  9.9667215931180110e+01  9.9968338431866243e+01  9.9600443272704013e+01  1.0011985206672939e+02  1.0016676858227071e+02  9.9871284302959396e+01  1.0011821723595224e+02  1.0019427694354658e+02  9.9488802576073397e+01  9.9672109839276942e+01  9.9664183125936646e+01  9.9842271337623785e+01  9.9478066951691090e+01  1.0042927609458280e+02  4.0000000000000000e+01  8.3230722885812085e+01  9.6090043501974378e+01  4.0000000000000000e+01  1.0011066537075442e+02  9.9942146834265500e+01  9.9860759356878731e+01  9.8753590041725019e+01  9.5161219914442768e+01  9.4921077213218496e+01  9.4902746530077977e+01  8.5151490102173867e+01  9.6479524309557050e+01  9.7632944012955164e+01  9.0763548461043058e+01  9.1898858930497610e+01  1.0015593335412312e+02  1.0031017461387607e+02  9.9435036877286734e+01  1.0004186682797439e+02  9.9111029101448082e+01  9.9866048432452857e+01  1.0055110031033090e+02  1.0034559442718685e+02  9.9481230372730906e+01  1.0006751511763441e+02  9.9809053725279213e+01  9.2403493366600514e+01  9.1610979455970721e+01  9.3271574547647475e+01  8.7852651251704089e+01  7.9971749797982838e+01  9.4125109328277148e+01  9.6129200216270831e+01  7.5439918586110196e+01  4.0000000000000000e+01  4.0000000000000000e+01  4.0000000000000000e+01  5.4771013669609829e+01  9.9942097213078071e+01  9.9703952482862405e+01  9.9765477032558707e+01  1.0030546606911570e+02  7.9842322973279380e+01  8.4988909108525689e+01  8.7222334743909187e+01  6.8808955328155534e+01  8.9303855886037127e+01  8.3648459517672350e+01  9.0941799599743902e+01  9.9510416668729505e+01  9.9434622318141578e+01  1.0102756525896764e+02  9.9867600874540869e+01  4.0000000000000000e+01  4.0000000000000000e+01  6.2910060614883413e+01  5.2018534172639811e+01  9.9459323102332746e+01  9.9959890992309070e+01  1.0044562696037725e+02  1.0005987265455016e+02  9.6716689411172794e+01  9.6726701705242888e+01  9.7971235682582588e+01  9.4830797322621336e+01  9.7741730415667661e+01  9.7756544029672114e+01  9.6811360221360118e+01  9.7901610264510936e+01  9.2020952095061574e+01  9.5647759956456227e+01  9.6382612339812624e+01  9.5500027181064496e+01  9.9607767190181860e+01  9.9808914051815051e+01  9.9323504508960596e+01  9.8912822349594762e+01  9.9774954282425895e+01  9.9980671064790116e+01  9.9657075206655648e+01  9.9773364120482256e+01  9.1055207219620499e+01  8.8996887023877946e+01  8.9406713735061402e+01  6.8562419599136987e+01  9.9824385335978832e+01  1.0018081953696058e+02  9.9878658854988032e+01  9.9376335432415033e+01  9.9138970107916805e+01  9.9121455603354107e+01  9.9380784463559763e+01  9.8310758466237246e+01  9.8732724201667963e+01  1.0011373435607129e+02  1.0019048589864012e+02  9.9777811635974558e+01  4.0000000000000000e+01  8.1931326813812859e+01  5.5315985656450941e+01  5.8550631513379251e+01  8.9559882068516316e+01  9.1236930517223712e+01  8.0546551090109389e+01  7.7942237674501683e+01  7.2486567485988616e+01  5.6092697258078033e+01  4.9044746989599048e+01  6.0032877752073219e+01  9.8993869851110105e+01  9.7609519034715163e+01  9.8857238946701244e+01  9.8904425858703235e+01  9.8935925251396299e+01  1.0005145285193451e+02  9.9705628367136583e+01  9.9693408481958244e+01  8.6893519419628916e+01  9.0507200262730478e+01  6.3233551379302050e+01  6.8219124408193878e+01  9.9853877719466993e+01  9.9904584079110151e+01  1.0059811236163343e+02  9.9841287352661453e+01  1.0026596882436343e+02  9.9662488330503777e+01  9.9945341673625677e+01  9.9837548064823707e+01  9.9050379312143860e+01  9.9050480411291474e+01  9.9542885469692038e+01  9.9189813253591026e+01  1.0041310359301032e+02  1.0067262756425028e+02  9.9028232449046556e+01  1.0014177027067650e+02  1.0000398788645514e+02  9.9967076777986179e+01  1.0008281597940790e+02  1.0002809093961216e+02  9.7639268544626830e+01  9.7321644596283477e+01  9.8700226955203149e+01  9.7292139362699785e+01  9.9093998481127201e+01  9.9573676931600403e+01  9.8320992125054815e+01  9.9078656632474406e+01  9.9131014300743217e+01  9.9728821230055459e+01  9.9315374366709491e+01  9.9725259133391262e+01  1.0014207525520742e+02  1.0021238992962365e+02  9.9909686860679813e+01  9.9995269335292761e+01  9.9669924811665524e+01  9.9188375125029552e+01  9.9148831153722625e+01  9.9034504843246395e+01  1.0053292395153166e+02  9.9382877424604899e+01  9.9974680168406778e+01  9.9373316860354151e+01  9.8902893787003663e+01  9.9652675165001767e+01  9.9623484436089029e+01  9.9678884014885114e+01  1.0008285000501590e+02  9.9912363260514482e+01  9.9969899629073780e+01  9.9829329934652748e+01  1.0014695288729850e+02  1.0005449611163448e+02  9.9872470715292806e+01  9.8547641574588752e+01  9.9238069667429002e+01  9.8906296694771086e+01  9.6276831071391683e+01  9.9028133478809565e+01  9.9074069633590497e+01  9.8104178657078990e+01  9.8191029840313860e+01  9.9935579242663820e+01  1.0005150717533735e+02  9.9978541896427970e+01  1.0016501065929943e+02  9.9643192372730766e+01  9.9836736912368551e+01  9.9783769678246742e+01  1.0007211895878561e+02  1.0043137926978825e+02  9.9141685788247372e+01  9.9299359282565007e+01  9.9973107660555456e+01  9.9136539455253370e+01  9.9916285867959374e+01  9.9995279515593666e+01  9.6620309729818956e+01  9.9345708853838744e+01  9.8122075915319286e+01  9.9298609942952808e+01  9.6384455389273626e+01  8.9427469710551833e+01  9.2588478217921107e+01  9.4889362244847163e+01  9.9836024514527253e+01  9.9350464076170681e+01  9.9198924475176341e+01  9.9361728162579965e+01  9.9307048219614330e+01  9.8693594838595700e+01  9.6030774648177925e+01  1.0030486206587040e+02  9.8287994884766633e+01  9.8576162925092476e+01  9.8290251031628671e+01  9.6246458217836803e+01  9.9926080919396213e+01  9.9921066327848479e+01  1.0005150114015505e+02  1.0033757268748752e+02  4.0000000000000000e+01  4.0000000000000000e+01  4.7963870987057192e+01  9.9758118192255225e+01  9.9170673852564747e+01  9.9589453028646133e+01  1.0010999586571533e+02  1.0015751661332899e+02  1.0007284679940172e+02  9.9894983859953925e+01  9.9687580231703080e+01  1.0019369377144696e+02  1.0013584785349417e+02  9.9947950849611686e+01  4.0000000000000000e+01  4.0000000000000000e+01  5.6008717948308885e+01  5.1370208569090856e+01  1.0045167626281672e+02  9.8281429389147291e+01  1.0046581747033898e+02  9.9685092336610325e+01  9.9388592501043092e+01  9.9931892322519886e+01  1.0037804553362858e+02  9.9748857499352738e+01  9.7721731856577094e+01  9.8035840365129772e+01  9.5533328930092736e+01  9.8618589792382735e+01  1.0028970359281391e+02  9.9730642357890403e+01  9.9463852998044345e+01  9.9926419254861202e+01  9.9705203745257137e+01  9.9541746892931499e+01  9.7781261599184134e+01  9.7688774754314082e+01  9.2684988673396703e+01  9.5205619635002535e+01  9.8931382858762376e+01  9.9167285926895332e+01  9.9470659874340157e+01  9.9156599485581822e+01  9.8848953840961698e+01  1.0031764649043964e+02  9.9929224937791503e+01  1.0032458437588680e+02  9.9783116619255097e+01  9.9702138613855453e+01  9.9733759116675969e+01  9.9719192855852569e+01  9.1317139554463608e+01  9.2461737952319893e+01  9.6124284108009164e+01  7.0829435564985417e+01  9.9732812503724261e+01  1.0021641471570221e+02  1.0019873995298424e+02  9.9937397071437474e+01  9.9414693651060148e+01  9.9984280378930862e+01  8.4489276586937663e+01  6.9807056248557330e+01  7.5511829676252788e+01  7.9735504009247762e+01  1.0005407088395100e+02  9.9972630802584604e+01  9.9806069405320443e+01  9.9947035176686470e+01  9.9738947714400936e+01  9.8118486589358128e+01  9.9412531115621576e+01  1.0129525527303096e+02  9.8021838197079134e+01  9.6765285964996536e+01  9.7865925057980135e+01  9.1128937409183422e+01  9.9914338869807523e+01  1.0007134739853093e