<?xml version="1.0"?>
<VTKFile type="UnstructuredGrid"  version="0.1"  >
<UnstructuredGrid>
<Piece  NumberOfPoints="7197" NumberOfCells="32945">
<Points>
<DataArray  type="Float64"  NumberOfComponents="3"  format="ascii">26.8504524323 27.7601949881 9.7227784729  26.3562954148 28.8492006137 9.555813116700001  26.7835564592 27.93426985425 9.15084490255  26.30190684465 27.67454292425 9.426437486200001  26.7166604861 28.1083447204 8.578911332200001  28.8174259409 25.3536437363 13.9549318578  29.0473049179 24.70052593035 13.7170788369  29.2395537676 25.07641707805 13.84221009865  29.0993797005 24.54250982045 14.0684262279  29.6616815943 24.7991904198 13.7294883395  29.4694327446 24.4232992721 13.60435707775  29.2771838949 24.0474081244 13.479225816  29.17449429475 24.76017607035 13.266896213  28.75236646805 25.0374027286 13.37961797215  28.6873069952 24.7211617209 12.8043040865  28.98224544505 24.38428492265 13.14176495125  29.4826644912 25.2366708985 13.3445690166  29.0605366645 25.51389755675 13.45729077575  28.99547719165 25.19765654905 12.8819768901  29.3036473881 25.6741513772 12.9596496937  30.6385465888 28.9258267048 12.223824632  30.8408468093 28.70247963965 10.49874415605  30.36920690645 28.33583496325 11.4363255283  30.47429480345 29.34909546325 11.2858111837  31.11018649165 29.2924713812 11.28624325975  31.5818263945 29.6591160576 10.3486618875  30.9459347063 29.71574013965 10.34822981145  30.3100430181 29.7723642217 10.3477977354  30.2049551211 28.7591037217 10.49831208  30.0998672241 27.7458432217 10.6488264246  27.8714911621 38.6626282753 8.386535197000001  29.20704875085 38.665971188 8.521494017049999  28.40979066395 38.6451064098 7.939616234000001  28.6965024402 39.6593060126 8.49875192785  28.668749249 38.6834930535 8.968412980050001  29.4660073359 38.7043578317 9.5502907631  29.23480194205 39.6417841471 8.05183296485  29.4937605271 39.68017079080001 9.080629710899998  29.5215137183 40.6559837499 8.610968658699999  28.9480901658 38.6275845443 7.492697271  34.102542851 24.8182767704 12.2707173735  33.8069706436 24.32915723225 11.269007107  33.1214738286 24.78301394995 11.49372245075  33.9050353296 24.0759043948 12.04152832925  34.004478165 25.07152960785 11.49819615125  33.2195385146 24.5297611125 12.266243673  33.906413479 25.3247824453 10.725674929  32.3365341782 24.2412454546 12.2617699725  33.0220309932 23.7873887369 12.03705462875  33.7075278082 23.3335320192 11.812339285  33.084420295 26.1096401059 15.8458239794  33.58099084715001 26.1266434503 15.30584162665  33.62659445095 25.51083897095 15.3080409717  33.0126192313 25.90593395865 15.4035181804  32.9408181676 25.7022278114 14.9612123814  33.50918978345 25.92293730305 14.86353582765  33.55479338725 25.3071328237 14.8657351727  34.1687686069 24.912037836 14.770257964  34.1231650031 25.52784231535 14.76805861895  34.0775613993 26.1436467947 14.7658592739  28.971756234 40.6559837499 7.9240136038  29.3511999889 39.99563944005 7.4288702582  28.9599231999 39.6417841471 7.7083554374  29.6748994275 39.72055774535 8.319299246449999  30.378042621 38.7851317408 8.714584889099999  30.0543431824 39.0602134355 7.82415590085  29.6630663934 38.70635814255 8.10364108005  29.3393669548 38.98143983725 7.2132120918  29.7306437438 39.3352951302 6.9337269126  33.5666033618 22.4097748402 13.1151928097  32.9573021426 21.83520380555 12.9681793629  32.80840397885 22.5010089755 13.13956936815  33.08669625715 22.24426779105 11.9415200478  32.0502045959 22.5922431108 13.1639459266  32.19910275965 21.92643794085 12.99255592135  32.3284968742 22.33550192635 11.96589660625  32.3480009234 21.2606327709 12.8211659161  31.3292612616 31.8154563426 9.022145674100001  31.9885980165 32.8191298757 8.83416131035  32.13390659985 31.88990643485 8.978795978400001  31.7588243318 32.39769031165 9.29243602745  31.5590349463 32.23689590665001 8.563870957000001  31.788808631 32.6583354707 8.105596239900001  32.188387402 32.9799242807 9.562726380799999  30.5592407883 30.866189884 9.5867216941  31.0852561592 31.4254709476 9.950487377849999  31.5134604566 30.77793144645 10.14898866505  30.66149459195 31.03487094065 10.2855856435  30.7637483956 31.2035519973 10.9844495929  31.18750996285 31.59415200425 10.64935132725  31.61571426025 30.9466125031 10.84785261445  32.4676801249 30.6896730089 10.711255636  32.0394758275 31.33721251005 10.5127543488  31.6112715301 31.9847520112 10.3142530616  30.1301515462 25.7265464695 10.2843210078  31.03514706925 27.14899279265 10.4251106245  30.5428633893 26.83415717015 10.02839902835  30.11500938515 26.7361948456 10.4665737162  31.0502892303 26.13934441655 10.2428579161  30.55800555035 25.82450879405 9.84614631995  30.9858595545 25.9224711186 9.407971632100001  31.47814323445 26.2373067411 9.804683228249999  31.9704269144 26.5521423636 10.2013948244  31.9735327634 22.7498288435 15.1158552047  32.64107445945 21.3785835278 14.9814315184  32.2086950001 21.49844964795 15.55337581005  32.3541713278 22.3156053191 15.60805461395  32.78655078715001 22.19573919895 15.0361103223  31.8280564357 21.93267317235 15.0611764008  31.682580108 21.1155175012 15.0064975969  32.7348098922 21.8813817947 16.1002540232  33.16718935155 21.76151567455 15.52830973155  33.5995688109 21.6416495544 14.9563654399  32.3735597449 29.8605392021 11.2320402655  32.0247532597 30.17439453325 10.52995876175  32.68752010935 29.6088821803 10.3037446303  31.9306328797 29.34526072645 11.05074339125  33.7932138242 29.558648303 10.2588273731  33.13044697455 30.12416065595 10.48504150455  33.03632659455 29.29502684915 11.00582613405  32.2794393649 29.0314053953 11.752824895  32.6486262733 24.3520748528 15.102295863  33.2152299931 25.15336319985 14.39042260505  33.4086974401 24.6320563444 14.9362769135  32.79472222045 25.0271513321 15.0317541222  32.4551588263 24.87338170825 14.55644155455  32.60125477344999 25.54845818755 14.48589981375  32.2616913793 25.3946885637 14.0105872461  33.6318662849 20.0057601812 15.3717430277  34.1026199435 20.93301526625 14.91496617305  33.91287977090001 20.5158471022 14.3506882751  33.6157175479 20.8237048678 15.1640542338  34.1187686805 20.11507057965 15.12265496695  33.4259773753 20.40653670375 14.59977633585  34.6056710761 20.2243809781 14.8735669062  33.2200884657 20.8073132263 13.827809644  33.4098286383 21.22448139035 14.39208754195  30.0558853877 37.3428395512 9.368762439899999  30.5791610212 37.02850709195 8.82237222855  29.5429413646 36.60431655715 8.277327974749999  30.2184765632 36.5034727783 9.3686371271  30.3810677387 35.6641060054 9.3685118143  30.7417521967 36.18914031905 8.82224691575  29.7055325401 35.76494978425 8.27720266195  29.0299973415 35.8657935631 7.1858935096  30.0662169981 36.2899840979 7.7309377634  31.1024366547 36.7141746327 8.2759820172  26.80129098185 29.170297377 9.213111189799999  26.86818695495 28.99622251085 9.785044760150001  26.8859214776 30.2322500336 9.8473110474  33.2324080986 23.3344682305 16.2722038442  33.41598845475 22.48805889245 15.61428464205  33.78224565805 22.9166574815 16.28630751595  33.70341119035 23.12361338885 15.40959265515  34.1744142821 22.9127585472 14.5469814661  33.8869915465 22.2772040508 14.751673453  34.2532487498 22.70580263985 15.4236963269  34.3320832175 22.4988467325 16.3004111877  33.9658260142 22.07024814345 15.6283883138  31.4024936499 29.9229804134 12.8903672515  31.8409665074 29.47719290435 12.32159607325  32.42292232695 29.5508000236 12.94735103275  32.3885756797 30.11979342185 12.30491254395  33.3746577095 30.3166064303 11.7194578364  32.8270485372 29.6740059128 11.7361413657  33.40900435675 29.74761303205 12.3618963252  33.443351004 29.1786196338 13.004334814  32.86139518445 29.10501251455 12.3785798545  28.5635292796 31.357243121 9.617351388199999  27.9070640699 30.2357717212 9.55853491665  27.7247253786 30.7947465773 9.732331217799999  28.26739462525 30.9095139954 9.025673145399999  28.7458679709 30.7982682649 9.443555087050001  27.9712599709 30.4617848698 8.4339949026  27.42859072425 30.3470174517 9.140652975  28.44973331655 30.3505391393 8.85187684425  28.9282066622 30.2392934088 9.269758785900001  30.455011097 24.0332011569 13.7610875314  31.3607889565 24.4294787538 13.2121122004  30.765668825 24.39646658165 12.9686500213  31.3957726376 24.13722330575 13.01142875195  31.0501312285 24.06621332905 14.0045497105  31.64525136 24.0992255012 14.2480118896  31.9908927691 24.1702354779 13.25489093105  31.7064303656 24.5004887305 12.21899124185  31.076326553 24.7597320064 12.1762125112  30.9084041499 25.2187345023 13.4511205148  31.62246916405 24.72998997845 12.85644524365  30.99236535145 24.98923325435 12.813666513  31.27682775495 24.65898000175 13.8495662022  30.06043277 30.0724695818 11.56348287  30.53689570685 30.4879581095 10.66612366415  30.18523789405 29.92241690175 10.9556403027  29.76704302805 30.38802400735 10.7073911375  30.4120905828 30.63801078955 11.27396623145  29.4736532861 30.7035784329 9.851299405000001  29.8918481521 30.2379713273 10.0995485702  30.11870084085 30.9535652151 10.41787449895  32.6067891525 22.0787607419 10.7678472859  33.15715848035 22.70614638055 11.29009328545  32.87886620205 22.962887565 12.4881426058  33.637065585 22.8716534297 12.46376604735  34.39190283305 23.20371688075 12.531539102  34.32144060985 22.74183829125 13.18296586435  34.32991860529999 22.46925383075 12.43763487725  35.0762778579 23.0739017423 13.250738919  34.3411526781 33.3799464684 11.4395579198  33.9020671911 32.67214067995 10.5669392548  33.47101915295 32.93740112905 10.6559250386  33.6365197868 32.6899732927 10.96838618215  34.44119944854999 33.609541692 10.7256498489  34.6067000824 33.36211385565 11.03811099245  34.17565204425 33.62737430475 11.12709677625  34.0101514104 33.8748021411 10.8146356327  34.8722474867 33.3442812429 10.6366640651  32.9318868955 32.000000117 10.4972144445  33.4455522618 32.0775840439 13.0668801549  33.0559676674 31.51434499415 11.9971808143  33.15656261355 32.26028379405 11.78178801395  33.6231339382 31.9065789849 12.36787342615  32.97898093715 32.43128885305001 12.4807
[...]
<PointData  Scalars="p"> 
<DataArray  type="Float64"  Name="p"  format="ascii">8.6249721033560274e+00  8.6375201569290034e+00  8.6194726487715361e+00  8.6582376304458588e+00  8.6255483012417180e+00  8.5875188516513106e+00  8.5244675584838010e+00  8.5153311437937127e+00  8.5444726008690086e+00  8.4140895186415108e+00  8.4309405106769706e+00  8.4388845604781153e+00  8.4691412737886704e+00  8.5536132433708456e+00  8.5319086581282786e+00  8.4842130612610926e+00  8.4320810553957521e+00  8.5335862463054912e+00  8.4889407157761134e+00  8.4175127070983056e+00  8.3227545540178163e+00  8.3368225659446491e+00  8.3376022917187758e+00  8.3534592181202267e+00  8.3297959463259712e+00  8.3237524751165424e+00  8.3478836295196999e+00  8.3776371224156563e+00  8.3646584556819708e+00  8.3466194438691232e+00  8.4866853689674979e+00  8.4485535109101715e+00  8.4570737000070597e+00  8.4636879037113459e+00  8.4764399611017627e+00  8.4729021740248580e+00  8.4377290803016702e+00  8.4581789665103209e+00  8.4468101571285956e+00  8.4260227584451037e+00  8.2048215774398869e+00  8.2080953187624690e+00  8.2242641638469429e+00  8.2038045984955019e+00  8.2102697172320696e+00  8.2177821413130712e+00  8.2157229027654317e+00  8.2320981864436469e+00  8.2154215430772659e+00  8.2015488182319309e+00  8.1817522247713796e+00  8.1882164954167802e+00  8.1863254531540548e+00  8.1884111423189481e+00  8.1970844212052931e+00  8.1946513382415649e+00  8.1926704887987523e+00  8.1870214217542348e+00  8.1885114730196964e+00  8.1911677217610048e+00  8.4461920121278755e+00  8.4228355674035260e+00  8.4366844887384396e+00  8.4321287879771027e+00  8.4173777627861419e+00  8.4044938685006816e+00  8.4230511097440814e+00  8.4069184377353547e+00  8.3886632709347229e+00  8.1970482608654862e+00  8.1995453163915286e+00  8.2051131234242725e+00  8.2006753783989463e+00  8.2146802980218272e+00  8.2066413089674732e+00  8.2098744691438519e+00  8.2002235845757472e+00  8.3389692571745062e+00  8.3286045856799813e+00  8.3170765428156237e+00  8.3383423794465727e+00  8.3272105376788481e+00  8.3167497235985621e+00  8.3352679279101736e+00  8.3700658346820198e+00  8.3600904894609815e+00  8.3386831769217906e+00  8.3768062175730051e+00  8.3762986134969655e+00  8.3638285554340506e+00  8.3399057980799771e+00  8.3102307965387574e+00  8.3303695263116850e+00  8.3511512208480845e+00  8.3020839723076794e+00  8.3053905006231226e+00  8.3157839101474202e+00  8.3238665373829193e+00  8.2894921381162625e+00  8.2965860407166279e+00  8.2891925156144612e+00  8.2816638848459405e+00  8.2730294816774812e+00  8.2027280210421250e+00  8.1956258868845655e+00  8.1956772763249734e+00  8.1955156789436909e+00  8.1960039930407209e+00  8.2007595678690066e+00  8.1988025414880230e+00  8.1912361398090248e+00  8.1916259880389291e+00  8.1913796083046133e+00  8.3007655479053710e+00  8.3162079724935971e+00  8.2905512572847133e+00  8.3067836513176925e+00  8.2629735830712914e+00  8.2856967819668998e+00  8.2767630364064839e+00  8.2881989628894406e+00  8.1981073065105736e+00  8.2027217418846980e+00  8.1926458839266179e+00  8.1967410040960385e+00  8.2095932701665593e+00  8.2095866197546847e+00  8.2250289955654807e+00  8.1914817513361591e+00  8.1897822249172556e+00  8.1905720926658550e+00  8.1911480406239843e+00  8.1904384367639445e+00  8.1922074703552816e+00  8.1891819581358014e+00  8.1936596527234631e+00  8.1930665062668755e+00  8.4488647889520241e+00  8.4154267148532025e+00  8.4290640242448358e+00  8.4429630104056059e+00  8.4320368257118741e+00  8.4088473122262091e+00  8.4224167757252992e+00  8.4119820887459049e+00  8.3971358136803946e+00  8.3827040256132879e+00  8.6141954593535726e+00  8.6080387977171355e+00  8.6057503995137150e+00  8.1835985724852662e+00  8.1893063444345895e+00  8.1823532564004093e+00  8.1873490059943776e+00  8.1889689676981163e+00  8.1903274866963471e+00  8.1848080040559825e+00  8.1817275783453578e+00  8.1872679898801604e+00  8.3099918828190056e+00  8.2999805001352502e+00  8.2807711098915142e+00  8.2978004791634277e+00  8.2808607393938818e+00  8.2840391316684290e+00  8.2680333753161364e+00  8.2535963126985390e+00  8.2701943747284368e+00  8.5232032077683506e+00  8.5519681059586201e+00  8.5647637135384809e+00  8.5555004047692869e+00  8.5124441897884271e+00  8.5811729538200723e+00  8.5876510239823158e+00  8.5380229185467478e+00  8.4861297945327827e+00  8.2839009943139370e+00  8.2552415215253951e+00  8.2811278480357284e+00  8.2513561045846071e+00  8.2497747986088807e+00  8.2277449774254432e+00  8.2334750134636785e+00  8.2499257181461427e+00  8.2714736940348104e+00  8.2791202270617337e+00  8.2524901821103747e+00  8.2779282973623243e+00  8.2516742820361966e+00  8.3799109165159109e+00  8.3762749558409375e+00  8.3820777898010732e+00  8.4159240817199699e+00  8.3810448330435054e+00  8.4433815365325700e+00  8.4075646479014612e+00  8.4040712704194274e+00  8.2000670506752762e+00  8.2026925021673982e+00  8.2092985835188230e+00  8.1992941623884814e+00  8.1923949369017190e+00  8.1912350575849988e+00  8.1901207306792347e+00  8.1853280820317753e+00  8.3035218826744330e+00  8.2985943280199290e+00  8.3109569467546329e+00  8.3068330424745742e+00  8.2970342945640674e+00  8.2962187316549354e+00  8.3066044184553363e+00  8.3072661553314529e+00  8.2883718359318266e+00  8.3132429760140347e+00  8.3030885887368804e+00  8.3061013698881201e+00  8.3149270362283954e+00  8.2984408487218104e+00  8.3214353867390685e+00  8.3109396848638557e+00  8.3394920045155327e+00  8.3307977827839164e+00  8.2930972156482419e+00  8.3202443215879871e+00  8.3998325846473527e+00  8.3738011894159179e+00  8.3673692154326620e+00  8.3833728689576006e+00  8.3526883753554486e+00  8.3477441534306571e+00  8.3169694665257090e+00  8.3307452106936246e+00  8.3120028461708433e+00  8.3007836226078009e+00  8.2888774144483985e+00  8.2999852130536720e+00  8.1964793538953433e+00  8.1946505341747571e+00  8.1900441958604571e+00  8.3587566902415045e+00  8.3547108107795029e+00  8.3455659979246803e+00  8.3390023563747224e+00  8.3788247690813353e+00  8.3703479051718475e+00  8.3849264686104306e+00  8.3932134375287131e+00  8.2659154132426629e+00  8.2606718097320435e+00  8.2587726440461360e+00  8.2551336870852925e+00  8.2390753621090855e+00  8.2536205391494608e+00  8.2502410567019773e+00  8.2473682168328430e+00  8.2483998182356615e+00  8.2495950924901802e+00  8.2461027640699207e+00  8.2546870662155083e+00  8.2358206485541405e+00  8.2585558481314489e+00  8.2675950147868384e+00  8.2638282389900173e+00  8.2248289658865623e+00  8.2428990716706938e+00  8.2607104895262804e+00  8.2888259849472252e+00  8.2816947066309190e+00  8.2778639600506754e+00  8.2678390986031509e+00  8.2724387090096947e+00  8.2600342824900093e+00  8.2715611213876148e+00  8.2555063623453986e+00  8.2225045081785737e+00  8.2103922582101472e+00  8.2052055799018326e+00  8.2177099598261094e+00  8.2104747382056420e+00  8.2025929768702746e+00  8.2008415943800248e+00  8.1951280189938913e+00  8.1970078723072763e+00  8.2744705302533959e+00  8.2822473599067443e+00  8.2681693971462700e+00  8.2978418539737504e+00  8.4829446786614984e+00  8.4400119811400689e+00  8.4443226275978542e+00  8.4590832151019573e+00  8.4610692089264194e+00  8.4439237815197465e+00  8.4274879290068263e+00  8.4356862873444367e+00  8.4235861653532922e+00  8.3107699446206613e+00  8.3113338842757880e+00  8.2956425587362901e+00  8.3187000315575403e+00  8.4644621162370566e+00  8.4744870246555681e+00  8.4601530494893673e+00  8.4425352556168249e+00  8.3005049716800894e+00  8.2933530305061982e+00  8.3036546266493474e+00  8.2877408877543228e+00  8.2946122969925664e+00  8.2775137531665042e+00  8.2957224403842389e+00  8.2481204192905864e+00  8.2427816765687734e+00  8.2605630429927732e+00  8.2487512697602252e+00  8.2315936333368267e+00  8.2483430129394808e+00  8.2605398407419095e+00  8.2313926575010363e+00  8.2831361480268821e+00  8.2870634241831773e+00  8.1671950052110081e+00  8.1753081651593220e+00  8.1736415138192822e+00  8.1707380666744065e+00  8.1682587311146886e+00  8.1688231354428176e+00  8.1826206768220970e+00  8.1735142909974670e+00  8.1857542818598716e+00  8.1818210470026500e+00  8.4361273537691588e+00  8.4331391975215961e+00  8.4383551709674958e+00  8.4524859812960518e+00  8.4174186405646427e+00  8.4209117579473283e+00  8.4638804799113476e+00  8.4456256826372602e+00  8.4313435380498696e+00  8.2055703431938287e+00  8.1926018876169344e+00  8.1926618806007419e+00  8.1928684251368953e+00  8.1843094971938033e+00  8.1937702555164798e+00  8.2050465188124022e+00  8.2916382789600611e+00  8.2674195634612282e+00  8.2855147589886986e+00  8.2765628959370439e+00  8.2729906821761361e+00  8.2588660233708922e+00  8.2037789805024097e+00  8.1922907294320826e+00  8.1864068988207137e+00  8.1817104662364404e+00  8.1798510374741547e+00  8.2261054826716240e+00  8.2202504901749140e+00  8.2257474725358328e+00  8.2104042609425214e+00  8.2427926754428515e+00  8.2370165573025016e+00  8.2173557005802902e+00  8.1977160536600273e+00  8.2033173167346085e+00  8.2092072776016494e+00  8.2819918045571335e+00  8.2804801888514170e+00  8.2859165080290200e+00  8.2903970197515093e+00  8.2746806059003770e+00  8.2844853332194255e+00  8.2874620502473046e+00  8.2873058425799968e+00  8.2931571573212928e+00  8.3032636357075926e+00  8.3060759326090281e+00  8.2475579365894021e+00  8.2502626449160470e+00  8.2577570926713335e+00  8.2403862977388638e+00  8.2415996255229338e+00  8.2599496875062322e+00  8.2512025486625493e+00  8.3201853929955352e+00  8.2981645285011183e+00  8.3063292752848117e+00  8.3169071974615463e+00  8.3237293568317554e+00  8.3132559950300617e+00  8.3012585103338772e+00  8.3117117446014692e+00  8.3294011887736303e+00  8.2824619025011010e+00  8.2697520851980606e+00  8.2638918976422868e+00  8.2450881603612149e+00  8.2607341757118711e+00  8.2592268634572452e+00  8.2845681477084163e+00  8.2881256490083430e+00  8.2935078263915436e+00  8.2780606054897863e+00  8.2723893293725332e+00  8.2695753206739671e+00  8.2808645040784405e+00  8.2667479304419906e+00  8.2549086679571761e+00  8.2427468537803570e+00  8.2533445839395458e+00  8.2481092885568899e+00  8.2040423603534887e+00  8.1704694507406508e+00  8.1785116975900749e+00  8.1948613320800447e+00  8.1747035605105118e+00  8.1845290578816083e+00  8.1678603555629170e+00  8.1556653138714506e+00  8.1475811662091733e+00  8.1856053885232107e+00  8.1846532403291832e+00  8.1835141132354323e+00  8.1843776365518472e+00  8.1871216424039552e+00  8.1847534116730429e+00  8.1937224777661513e+00  8.1854946772964468e+00  8.1751055491661990e+00  8.1878598579321320e+00  8.1801456914844035e+00  8.1832431146259044e+00  8.1831266856841438e+00  8.1797187124239237e+00  8.2088831573337178e+00  8.1890545976001992e+00  8.1930527164893050e+00  8.1998140209411474e+00  8.2116205473317265e+00  8.2300456349707822e+00  8.2933130880834636e+00  8.2827107034884833e+00  8.1760981264189976e+00  8.1785428762821493e+00  8.1787369696166419e+00  8.1795253952171461e+00  8.1755402432305626e+00  8.1659602434754675e+00  8.1767707813289494e+00  8.1705478193868881e+00  8.1640771224477984e+00  8.1712250173731285e+00  8.1588003731897878e+00  8.1723546671495022e+00  8.1570294915858206e+00  8.1791928440552741e+00  8.1848398868853955e+00  8.1856882483484537e+00  8.1754462502393395e+00  8.1829349014974984e+00  8.1846592852358526e+00  8.1775169926614470e+00  8.2167906205747219e+00  8.2307099254488296e+00  8.2274440986966546e+00  8.2214648780681845e+00  8.2241383437743121e+00  8.2398505765808885e+00  8.2236095588310061e+00  8.2262391719779835e+00  8.2387952386808649e+00  8.2299175180835071e+00  8.2284772629197267e+00  8.2410787340346303e+00  8.2159183067087049e+00  8.2026610827597661e+00  8.2221228349930104e+00  8.2040927145952658e+00  8.3232942306651285e+00  8.3692771779978230e+00  8.3535420526721005e+00  8.3513409933893445e+00  8.3743419028647352e+00  8.3717233024413371e+00  8.3744080542303863e+00  8.3760442547705711e+00  8.3768567195569918e+00  8.3548388518420449e+00  8.2052550833302469e+00  8.1960053848010048e+00  8.2021725813910553e+00  8.2012530635074956e+00  8.1937261804547337e+00  8.1953573977948508e+00  8.2798263617772374e+00  8.3046667456456316e+00  8.2854804406773077e+00  8.2934471404412236e+00  8.3089499654852723e+00  8.2892841863530116e+00  8.3150286569970735e+00  8.3412542359889272e+00  8.2842368279073177e+00  8.2727786734356243e+00  8.2529523362848440e+00  8.2518027522804971e+00  8.2636260391566392e+00  8.2601017298139965e+00  8.2629820428226086e+00  8.2548785667789399e+00  8.1834371782253363e+00  8.1702664553868516e+00  8.1833559541699152e+00  8.1759026177601637e+00  8.1730744657893322e+00  8.1677527816355440e+00  8.1800568716491622e+00  8.1730682270270343e+00  8.1589069091267614e+00  8.2786034337299359e+00  8.2771036460648801e+00  8.2816928888063366e+00  8.2683698121181308e+00  8.2299320440376356e+00  8.2130308682418480e+00  8.2242616020961155e+00  8.2228633144571575e+00  8.2175155855182140e+00  8.2185599543683008e+00  8.2322452485948769e+00  8.2323734659736569e+00  8.2072038700752810e+00  8.1381996332466287e+00  8.1426765457485271e+00  8.1502088164604238e+00  8.1304570069596220e+00  8.1385250404550309e+00  8.1285301049207348e+00  8.1172149031083567e+00  8.5106829591495519e+00  8.4451767800579365e+00  8.5152672731648771e+00  8.4776440366043815e+00  8.4556954156966899e+00  8.4589239200729178e+00  8.4307577248095367e+00  8.4877504768213363e+00  8.5457181730719451e+00  8.5617523533310997e+00  8.4989347629298706e+00  8.5508786145281697e+00  8.5167984293758696e+00  8.4970364621615975e+00  8.4414372516650111e+00  8.4278969415218814e+00  8.2269505427451648e+00  8.2126643029293511e+00  8.2102506309462395e+00  8.2216021820433554e+00  8.2160579872030013e+00  8.2074062983090652e+00  8.2132321521228526e+00  8.2082865571434613e+00  8.1853820971060678e+00  8.1776231699967106e+00  8.1917004067699910e+00  8.1881683115477859e+00  8.2331576238874131e+00  8.2258744562413408e+00  8.2425021922934345e+00  8.2659372586212640e+00  8.2389929944121238e+00  8.2233594485581083e+00  8.2204156324973905e+00  8.2765890953872425e+00  8.2490619229938851e+00  8.2701562711178269e+00  8.2681015597597600e+00  8.2730741998178114e+00  8.2507031082868636e+00  8.5573230727694263e+00  8.5408973914880804e+00  8.5835287412796255e+00  8.5957063082646794e+00  8.5738036360811005e+00  8.5802709737325547e+00  8.3317436860777132e+00  8.2980824879935629e+00  8.2969263634999511e+00  8.2919385055223813e+00  8.3399324267680637e+00  8.2990372132460610e+00  8.1841946531581851e+00  8.1845228696021497e+00  8.1926959079350095e+00  8.1956854652536570e+00  8.1849484457316883e+00  8.1832036495251668e+00  8.1808006741940744e+00  8.2007087595347166e+00  8.2053790029455413e+00  8.1968575790690128e+00  8.1965723954680314e+00  8.2006664145622601e+00  8.4827950891832806e+00  8.5150561122577670e+00  8.4554304483667728e+00  8.4813641611125359e+00  8.5917511589456694e+00  8.5552563576394522e+00  8.5898248845923089e+00  8.5806207851974268e+00  8.2719562445855228e+00  8.2686597766283754e+00  8.2304105574102522e+00  8.2403300291559258e+00  8.2176000237744535e+00  8.2273549710009100e+00  8.2307519261880593e+00  8.2203268361368504e+00  8.3185820811699394e+00  8.3052836743410730e+00  8.3073843273144501e+00  8.3267612048650008e+00  8.3083216844697425e+00  8.2113788400325873e+00  8.2153885476311519e+00  8.2230659609764842e+00  8.2179879013807877e+00  8.2239401816972340e+00  8.3024341728449524e+00  8.2844467440887204e+00  8.2639429897384407e+00  8.2666136984139555e+00  8.2784202687278672e+00  8.2629421372580474e+00  8.2483052914442521e+00  8.2525745758428624e+00  8.2769235756099437e+00  8.2644740212322976e+00  8.3436545160707620e+00  8.1940362538745966e+00  8.1996067503797736e+00  8.2109607028795484e+00  8.1704799048412760e+00  8.1649963940699042e+00  8.1570620625164860e+00  8.5418863733248589e+00  8.5381817935862987e+00  8.5045173111854595e+00  8.5162396716348532e+00  8.2718607899358254e+00  8.2660026574050498e+00  8.1960465922172183e+00  8.1944985967903108e+00  8.1950720803447137e+00  8.1955352581593388e+00  8.1946649441061634e+00  8.1935687031959645e+00  8.1950034560145451e+00  8.1830014467209313e+00  8.1807032987331567e+00  8.1793560728948655e+00  8.1814381572529005e+00  8.1832029929316192e+00  8.1798966079633004e+00  8.1794506373403681e+00  8.1810158597936891e+00  8.2813847737077406e+00  8.2959095854497544e+00  8.2944928633903832e+00  8.2759975103106456e+00  8.3309803446447166e+00  8.3145434390382089e+00  8.3062679146290090e+00  8.3383952253579618e+00  8.3086203333435211e+00  8.2882004463909098e+00  8.3173309056331775e+00  8.3362203405673210e+00  8.3325970951805779e+00  8.3555585877636496e+00  8.3529592836444060e+00  8.3297137178368335e+00  8.2209219780188221e+00  8.2450783358584161e+00  8.2634952702934115e+00  8.2579260842771660e+00  8.3043261096286241e+00  8.2741718455634512e+00  8.3189270211449813e+00  8.2648704416786298e+00  8.2869467251256204e+00  8.2739661404122522e+00  8.2805991489547299e+00  8.1957473396775526e+00  8.1937223263535248e+00  8.2001257478629643e+00  8.3245418548700378e+00  8.3190233389790311e+00  8.3267437290377515e+00  8.2306556000963589e+00  8.2235493144848597e+00  8.2172223195772034e+00  8.2282699539090007e+00  8.2259511072022935e+00  8.2634205221558741e+00  8.3526336464606317e+00  8.3484953207261352e+00  8.1976118084939706e+00  8.2170685389467319e+00  8.2105257204075635e+00  8.2041578990795383e+00  8.1820880610884945e+00  8.2035198844838266e+00  8.1875412614639131e+00  8.2110185679178880e+00  8.1806733685063975e+00  8.1747738959435416e+00  8.1926613253128373e+00  8.1862111194806157e+00  8.5714696791481426e+00  8.5586205211496900e+00  8.5353245943911666e+00  8.5504416000779599e+00  8.5953739051843812e+00  8.6130667475954361e+00  8.1192778102676542e+00  8.1242428421651276e+00  8.1022901440629891e+00  8.1089286394466704e+00  8.2697711106687866e+00  8.2772501345010703e+00  8.4537349021740376e+00  8.4443756649159258e+00  8.4678869617593655e+00  8.4498402534307822e+00  8.4390949288230992e+00  8.4646449628815486e+00  8.2033636256477713e+00  8.2033905869015715e+00  8.2093903168798050e+00  8.1978768297385560e+00  8.1893539105270357e+00  8.1947276617609983e+00  8.2176590334945629e+00  8.2120718451355934e+00  8.3345645387022547e+00  8.3182808217187798e+00  8.3421249528999031e+00  8.2369917911336774e+00  8.2785039232173645e+00  8.2478804106963857e+00  8.1802390689131919e+00  8.1923833333018621e+00  7.9999999999999991e+00  8.0774153619388063e+00  8.0775483137765836e+00  8.0815371413190480e+00  7.9999999999999991e+00  8.0000000000000000e+00  8.0000000000000000e+00  8.0000000000000000e+00  8.0000000000000000e+00  8.1303428741670505e+00  8.1860348914487577e+00  8.1923708279223053e+00  8.2046615851014248e+00  8.1205573375675932e+00  8.1057521514064881e+00  8.1226871283973470e+00  8.1223060665053737e+00  8.1054838788084176e+00  8.1240961556117153e+00  8.1238580053793648e+00  8.1069337591240149e+00  8.0900087073681810e+00  8.1581482257549212e+00  8.1518613173322390e+00  8.1396363629883730e+00  8.1658773976626939e+00  8.1411067757936362e+00  8.1580073360794181e+00  8.3774752935317700e+00  8.3729394059302695e+00  8.3866351167232587e+00  8.3504624167557058e+00  8.3562308503511211e+00  8.3445661623735035e+00  8.3358817522616580e+00  8.3445916646221274e+00  8.2121776296182727e+00  8.2011969804780023e+00  8.2016276596616109e+00  8.2166416480555604e+00  8.2161850862193742e+00  8.2296307985059940e+00  8.3326555457282296e+00  8.3443965856186217e+00  8.3387969917332132e+00  8.3162353686359349e+00  8.4214061301783207e+00  8.4388571158102685e+00  8.4018643376071438e+00  8.3915663551074982e+00  8.4273322804488053e+00  8.4684579142555165e+00  8.2707348141093675e+00  8.2481355204285016e+00  8.2480398451742847e+00  8.2290516981016690e+00  8.2330686699540028e+00  8.2316084441993222e+00  8.1499636830122313e+00  8.1398280915715908e+00  8.1232767385955356e+00  8.3359618878154524e+00  8.3141671068605785e+00  8.3345316871042421e+00  8.3260382949492300e+00  8.1898296083424178e+00  8.1887756458174827e+00  8.1878417021452279e+00  8.1860190447438814e+00  8.1771433595189151e+00  8.1728413335459607e+00  8