<?xml version="1.0"?>
<VTKFile type="UnstructuredGrid"  version="0.1"  >
<UnstructuredGrid>
<Piece  NumberOfPoints="7349" NumberOfCells="33450">
<Points>
<DataArray  type="Float64"  NumberOfComponents="3"  format="ascii">15.3565269299 6.1239197525 17.8600084273  15.703314226 7.4102285983 16.45689440485  14.96074985645 6.6544752559 16.91434491035  15.37726263765 7.28894277195 17.13743900405  15.3979983454 8.4539657914 16.4148695808  14.9814855642 7.81949827535 16.1917754871  14.564972783 7.1850307593 15.9686813934  15.988379248 7.540091287 14.98281063  15.6124984395 7.42019856785 15.93065215375  15.2766760155 7.36256102315 15.4757460117  15.6931887967 7.9970285392 15.6988401054  15.9076888908 6.96326131565 15.21462267835  15.8269985336 6.3864313443 15.4464347267  15.1959856583 6.7857310518 15.70755806005  14.9001451981 6.7237326732 14.4928510747  14.73569313705 6.4678721919 15.6129466316  14.73255899055 6.954381716249999 15.23076623405  15.36357186585 6.55508200875 14.9696429007  14.9032793446 6.23722314885 14.87503147225  15.36670601235 6.068572484400001 15.35182329825  14.9064134911 5.7507136245 15.2572118698  15.45972977765 6.61297977045 16.6395257033  15.8555068511 6.08242426705 17.58518922025  16.3544867723 6.0409287816 17.3103700132  15.3363634657 5.7789506281 16.3746279185  14.95066812435 6.4819906937 16.17165465595  15.58168099965 6.082690986199999 15.9105313226  13.8993380074 6.7392417106 17.3330178883  14.2953757599 6.40119334115 16.3870664937  13.65216546795 6.6751924057 16.45601457775  14.2321553952 6.96213623495 16.65084964085  13.9625583721 6.1782988168 17.06923474115  13.38256844485 5.89135498755 16.87439967805  13.31934808015 6.45229788135 17.1381828252  12.7393581529 6.1653540521 16.9433477621  14.0257787368 5.617355923 16.805451594  14.3281188128 6.18800663445 15.8607987459  14.46609611395 5.68403477375 16.0313317319  14.0585217897 5.4041692163 16.2791838462  14.49883916685 5.47084806705 15.5050639841  14.0912648426 5.1909825096 15.7529160984  16.4150174585 7.58775886215 15.96395902315  14.71381415415 5.48496656885 16.06377200845  14.68107110125 5.69815327555 16.59003975625  15.1213884784 5.7648321263 15.81591989415  16.71569841925 8.21336817415 15.46849556695  14.68610967815 7.2635396214 17.13556955185  14.25624242485 7.6323692993 16.68940225465  14.61785073655 6.25909616935 16.8538229034  14.62793246865 6.43158073155 17.5965131578  15.3464451978 5.9514351903 17.1173181729  12.4178718872 7.7769066364 17.0846420971  13.4914223351 7.48096869785 16.52666174525  12.57861502005 6.97113034425 17.0139949296  13.1586049473 7.2580741735 17.2088299927  14.69115283335 5.870637837749999 17.33273001065  14.8003870751 7.7877367346 15.22711304595  15.0818867516 6.732984118 18.0812330688  15.44426222305 7.1319119801 14.73783085235  14.96797328265 7.55708769155 14.4891978866  15.845425119 5.90993970485 16.84249896585  13.18269197695 7.928307237849999 17.2473826065  13.9475120667 8.079707839299999 17.4101231159  13.92342503705 7.40947477495 17.3715705021  16.8983811214 -0.6702492376 2.6973110217  17.79046284435 0.64426054585 1.8844288772  17.67036817765 0.64426054585 2.56283781545  17.6313833529 -0.6702492376 2.42917808965  17.0184757881 -0.6702492376 2.01890208345  18.3643855844 -0.6702492376 2.1610451576  18.40337040915 0.64426054585 2.2947048834  17.7514780196 -0.6702492376 1.7507691514  17.1385704548 -0.6702492376 1.3404931452  18.4423552339 1.9587703293 2.4283646092  17.1419036648 2.9270828927 3.2719738892  18.0093409841 2.07860565965 3.34769157155  17.79212944935 2.442926611 2.8501692492  17.0201423931 1.12841682755 2.98464245545  17.35911519955 2.56276194135 3.76949621155  17.5763267343 2.19844099 4.2670185339  17.23735392785 0.7640958762 3.4821647778  16.6924045081 1.5385070919 -0.6591004764  16.772745801 1.3189656619 0.5414729364999999  16.501434079 1.6634624786 0.5414729364999999  16.91548748145 0.43412892715 0.3406963344  16.9637162301 1.1940102752 -0.6591004764  16.72451705235 0.55908431385 1.5412697473  17.18679920345 0.08963211045000002 0.3406963344  17.2350279521 0.8495134585 -0.6591004764  16.3104636499 1.7884178653 1.7420463494  16.6510361754 3.2029980853 1.9127205524  17.3764094419 1.8735940973 2.0852054793  17.13731153245 2.513404246 1.36817878045  17.54669570465 2.5808842073 2.1705425808  16.48074991265 2.4957079753 1.8273834509  17.3075977952 3.220694356 1.45351588195  17.9067231126 1.215105678 4.9876649181  18.25712949915 0.80609726355 3.99624584355  17.8814447767 0.2724282202 4.2819606126  18.3513456161 0.2724282202 4.7938776799  18.7959681196 -0.6702492376 4.6000904417  18.3260672802 -0.6702492376 4.0881733744  17.8561664408 -0.6702492376 3.5762563071  17.8770970713 1.8849631834 -0.6591004764  18.8013201367 1.6991084613 0.8846320664  18.1597261526 1.92186675635 0.8846320664  18.11487658955 1.28860490815 0.05733130994999996  18.5186910554 1.66220488835 -0.6591004764  19.1602850395 1.4394465933 -0.6591004764  18.75647057365 1.0658466131 0.05733130994999996  18.3526561078 0.6922466329 0.7737630963  18.39750567085 1.3255084811 1.60106385275  18.0280229106 2.6299455899 3.9139425247  18.1172096459 2.24044237735 4.34162695695  18.6580925575 2.2824437647 4.41623538  16.5359404463 2.3123844714 4.131307895  16.4232020481 2.05040116835 2.9366771222  16.71716078385 0.8210676169000001 3.41430945835  16.83892205555 2.61973368205 3.7016408921  16.72618365735 2.357750379 2.5070101193  16.60442238565 0.55908431385 2.21967868555  19.621129254 1.4321923232 1.5156396162  19.03174224395 1.69548132625 1.9720021127  18.9868926809 1.06221947805 1.14470135625  19.39070714675 1.43581945825 0.4282695699  17.68826438445 0.2724282202 4.7953430071  17.4698056563 -0.6702492376 4.6030210961  17.66298604855 -0.6702492376 4.0896387016  18.13288688795 -0.6702492376 4.6015557689  16.17381554915 0.8210676169000001 3.68096471005  15.811690652 -0.6702492376 3.2306215251  16.06107715095 0.55908431385 2.48633393725  16.3550358867 -0.6702492376 2.9639662734  17.71624658755 0.7640958762 3.9216374205  18.14926083735 0.64426054585 3.00231045815  17.3772737811 -0.6702492376 3.1367836644  17.0937803606 1.83669052435 0.5414729364999999  17.2847507897 1.71173513765 -0.6591004764  17.5560625117 1.36723832095 -0.6591004764  17.36976811605 3.3599432913 2.12743229925  17.2234516401 2.95180180905 0.8221507434499999  16.5668900203 2.93410553835 1.2813554139  17.964159415 3.2383906267 0.9943112115  16.4827438652 2.6652129914 0.6499902754  16.39660375755 2.22681542835 1.1960183124  15.7908439743 -0.6702492376 1.7904801972  16.0506538121 0.55908431385 1.7662632733  16.0255279525 0.06423185399999998 1.25143712295  15.4040085437 0.2082685695499999 0.5656898604  15.0171731131 1.0867863767 -0.6591004764  15.6638183815 1.437602121 0.5414729364999999  15.6386925219 0.9427496611499999 0.02664678614999999  16.2602119307 0.7987129455999999 0.7123940487  16.2853377903 1.29356540545 1.22722019905  17.92062824315 2.56167690505 0.16760536755  17.17992046825 2.2750880874 -0.00455510050000002  16.46470721455 -0.6702492376 1.5654866712  16.69939119275 0.06423185399999998 1.02644359695  17.50783376305 0.6073569729 0.3406963344  16.34461254785 -0.6702492376 2.24389560945  16.58757418665 2.10186004165 -0.00455510050000002  15.8436663654 1.7351583524 -0.6591004764  16.05193914805 1.266935649 0.02664678614999999  16.07706500765 1.76178810885 0.5414729364999999  15.43041973925 1.41097236455 -0.6591004764  16.4763082194 1.16861001875 0.02664678614999999  16.49180463915 0.8210676169000001 4.1612978132  16.447668832 -0.6702492376 4.1912877314  16.6730249767 -0.6702492376 3.44429937655  16.129679742 -0.6702492376 3.71095462825  16.7953093627 1.5849502848 4.8299408974  17.01199778315 0.7640958762 4.22915313265  17.32573790175 0.4573505236000001 4.20309860225  17.1858180485 1.8916956374 4.54847971565  16.62148909735 0.4573505236000001 4.5106143144  17.1519176364 -0.6702492376 3.88377201925  15.80126731315 -0.6702492376 2.51055086115  16.8964699201 3.065040489 2.5923472208  18.8195010318 0.64426054585 1.86049577075  19.40888804185 0.3809715428 1.40413327425  19.1966468297 -0.6702492376 1.2926269323  18.77465146875 0.01099869765 1.0331950143  18.28240783505 1.74877472135 4.70195014905  17.74152492345 1.706773334 4.627341726  18.1102760126 -0.6702492376 2.86865073235  17.1594640867 1.03687219165 5.0506735753  17.1325575095 0.4573505236000001 4.716480996750001  17.35101623765 1.4000279814 4.90880290775  16.60375721175 1.22179449505 4.97181156495  16.4122050608 0.8586387053 5.1136822325  16.94100535855 0.09419473384999999 4.858351664300001  18.3585208461 0.01099869765 1.46740412695  17.7456132813 0.01099869765 1.05712812075  18.84024564745 0.64426054585 2.82197193015  18.94852274915 1.35903632315 2.33308374345  19.3162672012 1.80089684345 2.60427779165  19.5379097592 1.0957473201 1.87672124695  19.4546902644 0.7593023169999999 2.2378028777  18.9095379244 0.04452653969999998 2.19942401765  18.78051620705 -0.6702492376 1.72683604495  16.4299369464 0.09419473384999999 4.65248498195  16.95873724415 -0.6702492376 4.39715441375  17.5230661953 0.7640958762 4.435019815  19.1784659346 0.38459867785 0.3167632279499999  19.5479943229 1.150320451 1.1868243658  19.33575311075 0.09909967060000002 1.07531802385  19.31757221565 1.15394758605 0.0994543195  19.4748593918 0.8684485788 0.8580091154  17.0561335903 2.2554127307 4.19916321445  17.19605344355 0.8210676169000001 3.85378210105  16.7476199414 0.8241132020499999 0.02664678614999999  17.79384202995 0.7708800457 0.05733130994999996  16.6656249045 1.9486673781 4.4806243962  19.2023459398 -0.009300858400000001 0.3167632279499999  19.1841650447 1.04554705705 -0.6591004764  18.78035057885 0.67194707685 0.05733130994999996  19.2080450499 0.6516475208 -0.6591004764  19.34145222085 0.7600480498 0.0994543195  19.32566854705 0.04452653969999998 1.765214905  16.26803543675 1.63683272215 -0.6591004764  14.6295155645 -0.6702492376 1.4940267764  15.4699896072 0.55908431385 1.6180365629  14.8233443388 0.2082685695499999 0.4174631499999999  15.21017976
[...]
<PointData  Scalars="p"> 
<DataArray  type="Float64"  Name="p"  format="ascii">9.0621656639565771e+00  9.0789327176961443e+00  9.1133786078264425e+00  9.0827658578081039e+00  9.0967464886476712e+00  9.1223155826764390e+00  9.1534503289508358e+00  9.0820983143754717e+00  9.0931474884556067e+00  9.1237180334024881e+00  9.0906969908974062e+00  9.0892104399235301e+00  9.0984639175058071e+00  9.1294426888884281e+00  9.1844526792821561e+00  9.1629888548674021e+00  9.1656167089210197e+00  9.1452371563685144e+00  9.1806702501066528e+00  9.1438540993335060e+00  9.1801694663193540e+00  9.0921209286009237e+00  9.0468720521178483e+00  9.0237799658603350e+00  9.1186279911736108e+00  9.1359424535328095e+00  9.1096628706433815e+00  9.1599355580706376e+00  9.1678584587844867e+00  9.1964654511611830e+00  9.1572753838800161e+00  9.1721951918305606e+00  9.2175224327574501e+00  9.2062617459104334e+00  9.2477390476050676e+00  9.1870571507377665e+00  9.1828876299781950e+00  9.1819586303908487e+00  9.2033528155320052e+00  9.1994183734107882e+00  9.2194948919590907e+00  9.0424657877815093e+00  9.1730627064591310e+00  9.1539282618713926e+00  9.1518232946152178e+00  9.0280565146387470e+00  9.1171996740995755e+00  9.1497004612404123e+00  9.1387294627537212e+00  9.1104581799067184e+00  9.0928041430502873e+00  9.2414722913463141e+00  9.1940993166544747e+00  9.2413545512920230e+00  9.2034191880023517e+00  9.1245579459140185e+00  9.1526551778867606e+00  9.0648910224422501e+00  9.1381329503832216e+00  9.1674120299686344e+00  9.0692094932029601e+00  9.1970406583171407e+00  9.1462534257408503e+00  9.1507668612533841e+00  9.0232167489279327e+00  8.9805369620575970e+00  8.9825388390656808e+00  8.9916194822852606e+00  9.0181957088083671e+00  8.9685436226312518e+00  8.9531643417803846e+00  8.9930889220954207e+00  9.0136194014748217e+00  8.9247341414594423e+00  8.9893409947202336e+00  8.9394618069150464e+00  8.9507369734449398e+00  9.0116520455628404e+00  8.9781167458250337e+00  8.9652493822559798e+00  9.0006188547984642e+00  9.0193742569160040e+00  9.0218872792413585e+00  9.0379509671558740e+00  9.0096715754967196e+00  9.0050230674676044e+00  9.0280997332800954e+00  9.0049658653284652e+00  8.9992343986144601e+00  9.0486056009277522e+00  9.0250156219180102e+00  8.9867781210175259e+00  8.9949856685813092e+00  8.9664877171304056e+00  9.0384708481655061e+00  8.9736704047552571e+00  8.9338378872619160e+00  8.9332630212769768e+00  8.9593097283474314e+00  8.9123227744550118e+00  8.9065299291154147e+00  8.9432440397735657e+00  8.9725792404753708e+00  8.9618951384966934e+00  8.9274795187568898e+00  8.9476263512103227e+00  8.9621446423800979e+00  8.9345884998066687e+00  8.9292757762122790e+00  8.9377275464238846e+00  8.9594378975197735e+00  8.9468493744155460e+00  8.9260628647707350e+00  8.9205091788688069e+00  8.8734147915494930e+00  9.0439253529093957e+00  9.0439089121775922e+00  9.0308757561510529e+00  9.0168763416773210e+00  9.0226382137598531e+00  9.0353735935037971e+00  8.9088007098103912e+00  8.9090747359526254e+00  8.9362448848626830e+00  8.9255887783521040e+00  8.9707902575642748e+00  8.9857726538283593e+00  8.9779860059935253e+00  8.9489238210788393e+00  9.0641398259113526e+00  9.0794833075677097e+00  9.0629157230941821e+00  9.0505730609429609e+00  8.9687179034642970e+00  8.9564752195782571e+00  8.9992392075796239e+00  9.0039827605997100e+00  8.9934720752403070e+00  8.9892518012771401e+00  8.9659620118953551e+00  8.9830033989609053e+00  9.0351915146696289e+00  8.9229471075461309e+00  9.0417836248669801e+00  9.0443703263503394e+00  9.0747456688501025e+00  9.0615997027297990e+00  9.0644672817268521e+00  9.0983364403500584e+00  9.1125065836323369e+00  9.0833492339461905e+00  9.0919374748694306e+00  9.0496806009652300e+00  9.0493648269356530e+00  8.9450898365784823e+00  8.9939809456669124e+00  9.0390514081934707e+00  9.0233651447013283e+00  8.9952611249250065e+00  9.0488294509380012e+00  9.0333258296584464e+00  9.0848757472445705e+00  9.0651532356032778e+00  9.0625495517142554e+00  9.1021396429618466e+00  9.0314900180763011e+00  9.0489274027251039e+00  9.0519985815572390e+00  9.0353659987894606e+00  9.0672592864482819e+00  9.0314718300053283e+00  9.0144513895566760e+00  8.9949602332395262e+00  8.9990656237087254e+00  9.0427342714101684e+00  9.0078993338069164e+00  9.0754711565947908e+00  9.0047203641231075e+00  8.9438409467167386e+00  8.9429483521409772e+00  8.9510657914966334e+00  8.9497579673977548e+00  8.9024843820677315e+00  8.9545023466212399e+00  8.9689217380817432e+00  9.0062179486748342e+00  9.0080187525804973e+00  8.9890410466461468e+00  9.0476877706806516e+00  9.0682350659612183e+00  9.0182008561629949e+00  8.9653015858920817e+00  8.9932664660879382e+00  8.9299771894369098e+00  8.9170441820690005e+00  8.8836455079056762e+00  8.9155399166500739e+00  8.9203387844957316e+00  8.9492895978415792e+00  8.9571708889361172e+00  9.0587226242382961e+00  9.0143767566868807e+00  8.9787815820986907e+00  8.9407946190830305e+00  8.9252528760413234e+00  8.9466754618693383e+00  8.9333307716445649e+00  8.9358395607547099e+00  9.0052914116054144e+00  9.0022310132495313e+00  9.0130059040155377e+00  8.9883210375307971e+00  9.0388058915819194e+00  8.9428940334929514e+00  8.9335347407844257e+00  8.9392355467426761e+00  8.9357501932003682e+00  8.9376933218117625e+00  8.9471536568210315e+00  9.0523778706064810e+00  9.1183055733717104e+00  9.0885023354307588e+00  9.1105574385256816e+00  9.0999712335280947e+00  9.0662404228667448e+00  9.1476826676973886e+00  9.1682432657505064e+00  9.1603171114880926e+00  9.1692983570714190e+00  9.1629497830831212e+00  9.1697528378022799e+00  9.1739323384829898e+00  9.1807328545913851e+00  9.1762442216076607e+00  9.1703872426259583e+00  9.1607363188769924e+00  9.1447968131340787e+00  9.1538199583898248e+00  9.1577842619353245e+00  9.1649098853435689e+00  9.1818875936783950e+00  9.1783046112516971e+00  9.1832499177934572e+00  9.1837282570042902e+00  9.1728856179636882e+00  9.1614365998194476e+00  9.1776930894378097e+00  9.1807925607005085e+00  9.1381365606775748e+00  9.1561623286998852e+00  9.1403330761454100e+00  9.1774590621112448e+00  9.1699338279539688e+00  9.1551532269653624e+00  9.1546046769014637e+00  9.1483506846272018e+00  9.1555920058843352e+00  9.1522441529514733e+00  9.1392455244119333e+00  9.2213171056221714e+00  9.2013331627177735e+00  9.1909667456547766e+00  9.1867738938573353e+00  9.1831763249368024e+00  9.1747665256888471e+00  9.1549010380512250e+00  9.1280082514430578e+00  9.1570700146973767e+00  9.1369024776554966e+00  9.1357588722792560e+00  9.1737457762537957e+00  9.1742026512871284e+00  9.1488615231284314e+00  9.1691713751897215e+00  9.1610234941229063e+00  9.1636367368228235e+00  9.1704202622420059e+00  9.1446918781072046e+00  9.2085569173523520e+00  9.2070709109155509e+00  9.1933662172045114e+00  9.1877028978920379e+00  9.3111255720394634e+00  9.3233536865165512e+00  9.3098754062694962e+00  9.3125092108825598e+00  9.3148093498208944e+00  9.3436702347803458e+00  9.3462886448391487e+00  9.3409605504219382e+00  9.3442088402202756e+00  9.3463318708292675e+00  9.3521097808530662e+00  9.3437303991106972e+00  9.3430639786555361e+00  9.3378036369595137e+00  9.3314655205031141e+00  9.3630077508154379e+00  9.3673103102364248e+00  9.3642449033901105e+00  9.3665769430576624e+00  9.3730741281965884e+00  9.3731138932302507e+00  9.3678631526701057e+00  9.3652492599369932e+00  9.3682262581985238e+00  9.3729672635056911e+00  9.3510208670463140e+00  9.3527801830185417e+00  9.3482320913720809e+00  9.3522216144880534e+00  9.3545104505331533e+00  9.3543300312760529e+00  9.3498204229089179e+00  9.3482957513078730e+00  9.3532755063204522e+00  9.3562113137464795e+00  9.3557842507712063e+00  9.3286375486232700e+00  9.3262957393486055e+00  9.3324671111416322e+00  9.3326049602632697e+00  9.3210820303896629e+00  9.3285122629906851e+00  9.3297490190399870e+00  9.3361335279451065e+00  9.3385462857855739e+00  9.3406286837621355e+00  9.3423102718228588e+00  9.3411869505221219e+00  9.3399553149659962e+00  9.3374622088522568e+00  9.3267917918586463e+00  9.3183795698850673e+00  9.3251433749587118e+00  9.3209981261549757e+00  9.3356825046041756e+00  9.3368930675088553e+00  9.3479954917456887e+00  9.3462417308603847e+00  9.3444166893101102e+00  9.3406146310516416e+00  9.3308020916156593e+00  9.3277578374505108e+00  9.3276337071957744e+00  9.3300012958873086e+00  9.3349433431676587e+00  9.3637179071119494e+00  9.3627891013434841e+00  9.3636031533518782e+00  9.3625563906602434e+00  9.3638502567272415e+00  9.3643698979134449e+00  9.3650649687561973e+00  9.3651270281916439e+00  9.3600690181806598e+00  9.3434362048196995e+00  9.3378874327218746e+00  9.3399355472545036e+00  9.3234962067629485e+00  9.3206226862400534e+00  9.3663464251811632e+00  9.3673231493558795e+00  9.3643697548265514e+00  9.3614424376091225e+00  9.3638453549853580e+00  9.3350873344775298e+00  9.3391415679807039e+00  9.3647146997760551e+00  9.3606365653320704e+00  9.3616208381816399e+00  9.3277566346805916e+00  9.3417681226090981e+00  9.3399471861855865e+00  9.3577175129959063e+00  9.3621395733109214e+00  9.3593519609254088e+00  9.3604661256354458e+00  9.3620569981882742e+00  9.3334229486215943e+00  9.3352795112329048e+00  9.3343560714903653e+00  9.3303199503733723e+00  9.3415658597980400e+00  9.3574508966596284e+00  9.3569775803346964e+00  9.3366817772633670e+00  9.3469280517591233e+00  9.3512505465820741e+00  9.3511664958622696e+00  9.3476922569444270e+00  9.3382943790422672e+00  9.3464842474183385e+00  9.3469317479365692e+00  9.3594379282445672e+00  9.3447016411559467e+00  9.3629937078785463e+00  9.3485402673371532e+00  9.3330094752814041e+00  9.3330585417659702e+00  9.3499038118503552e+00  9.3525744110640634e+00  9.3342594541251085e+00  9.3030560054005562e+00  9.3249005830940703e+00  9.3189205206415533e+00  9.3160679354619109e+00  9.3207012525943700e+00  9.3255679718578079e+00  9.3501090368093909e+00  9.3302951400292393e+00  9.5498520984943589e+00  9.5177527130568098e+00  9.5171878968652681e+00  9.5217349199804389e+00  9.5274314459928338e+00  9.5099279493937257e+00  9.5061459479901931e+00  9.5175665140777141e+00  9.5142022894859561e+00  9.5017413920337894e+00  9.5464044724829193e+00  9.5580437593279335e+00  9.5415724450668122e+00  9.5362278214273744e+00  9.5513702619456460e+00  9.5659640844369473e+00  9.5544262623407032e+00  9.5717500723589346e+00  9.5223650352826095e+00  9.6044806219407750e+00  9.5491237680590793e+00  9.5521518215426564e+00  9.5432771521442170e+00  9.5278242348511135e+00  9.5345678928718698e+00  9.5405830037105233e+00  9.5519577921845364e+00  9.5481463553803803e+00  9.5430361104237100e+00  9.2471309637366748e+00  9.2398186524637538e+00  9.2444161315322066e+00  9.2443705545051884e+00  9.2441428877108560e+00  9.2396796924575391e+00  9.2444236602580485e+00  9.2436382666776460e+00  9.2399611897711242e+00  9.2373362216278423e+00  9.1908393705731228e+00  9.1883583281679595e+00  9.1892470711828178e+00  9.1882584001615442e+00  9.1984185113467785e+00  9.1999523596409070e+00  9.1985282918598585e+00  9.3930474451569168e+00  9.4062072676478898e+00  9.4045134496539582e+00  9.4142238916404306e+00  9.4382167529431804e+00  9.4174819269417078e+00  9.4254492454123895e+00  9.4294236126843671e+00  9.4200601064327874e+00  9.4138801263503247e+00  9.5460502680811548e+00  9.5446103293325013e+00  9.5519349790534989e+00  9.5537361359631721e+00  9.5394831449355166e+00  9.5329805789030502e+00  9.5476020605303731e+00  9.5594482602879669e+00  9.5588973117060103e+00  9.5584039885297756e+00  9.3269302011899065e+00  9.3287010842675322e+00  9.3313666892899647e+00  9.3243246755263947e+00  9.3310660972614379e+00  9.3378519754719687e+00  9.3242714448768993e+00  9.3370984811032365e+00  9.3158765930518523e+00  9.3345233792082549e+00  9.3100041617825617e+00  9.3150828391557230e+00  9.3149712554251121e+00  9.3092655889077083e+00  9.3111748008050217e+00  9.3075576360657664e+00  9.3130294036088799e+00  9.3086940923953279e+00  9.3099564528025134e+00  9.3198307098426039e+00  9.3569690815876285e+00  9.3559053594564858e+00  9.3573979011890014e+00  9.3603323340715665e+00  9.3589795454087152e+00  9.3537695456176557e+00  9.3532169823645539e+00  9.3508611524397267e+00  9.3249231799135170e+00  9.3367269130331572e+00  9.3416558834315868e+00  9.3364872635006506e+00  9.3205685903002955e+00  9.3326793525845275e+00  9.3291603148781856e+00  9.3171098192863386e+00  9.3033784684621406e+00  9.4703587762889807e+00  9.4277313149159063e+00  9.4249814580431206e+00  9.4505469531697397e+00  9.4426643098276823e+00  9.4251091114995091e+00  9.4245077804265875e+00  9.4055895221184915e+00  9.4067556628935804e+00  9.4061969300011476e+00  9.4991435334494447e+00  9.4997227289512125e+00  9.5141488355044519e+00  9.5070150807192881e+00  9.4839202216967262e+00  9.5136687946465965e+00  9.5198391217037290e+00  9.4915635112219423e+00  9.4670915876654238e+00  9.5275432526372725e+00  9.3145409456475434e+00  9.3087683702425572e+00  9.3120167013544606e+00  9.3173511891642580e+00  9.3073772757572080e+00  9.3103406071115398e+00  9.3074982368079588e+00  9.3043637809418591e+00  9.2996001282340224e+00  9.3201938352084799e+00  9.3593975251892232e+00  9.3811577694033428e+00  9.3765586023275276e+00  9.3817208551118565e+00  9.3603059856153603e+00  9.3591109823875556e+00  9.3749093674585779e+00  9.3996062709766051e+00  9.3971934424215586e+00  9.3954291261468423e+00  9.4044786113731664e+00  9.4072147851197130e+00  9.3864561960609816e+00  9.3792634550118965e+00  9.3653392286051620e+00  9.3839848361100806e+00  9.3714215997496062e+00  9.3772605770839537e+00  9.3924323013255968e+00  9.4326259142319131e+00  9.4244578365793856e+00  9.4200460987410484e+00  9.4202433253548641e+00  9.4157159338451777e+00  9.3270386352786794e+00  9.3085880565783548e+00  9.3204654615207829e+00  9.3210842028892049e+00  9.3142785859298698e+00  9.3155813358893980e+00  9.3149801049168737e+00  9.3081135612918953e+00  9.3031107197883429e+00  9.3124895622124519e+00  9.3357204864927095e+00  9.3460052115202004e+00  9.3355087657558986e+00  9.3367183927140900e+00  9.3447817786612823e+00  9.3552770069334787e+00  9.3444831618592339e+00  9.3316055434766589e+00  9.3706843171368046e+00  9.3724638113753382e+00  9.3610879482117397e+00  9.3707316250964130e+00  9.3857079705933870e+00  9.3655309571154763e+00  9.3591083581205066e+00  9.3800844277247286e+00  9.3520481809211518e+00  9.4611909652380461e+00  9.4937997106168304e+00  9.4831630976375862e+00  9.4727515625805658e+00  9.4739652270492201e+00  9.4897513027768259e+00  9.4856390757897966e+00  9.4997792192120887e+00  9.5079921865272059e+00  9.4847695637506160e+00  9.4349522100566698e+00  9.4065233145633815e+00  9.4048697641111296e+00  9.4178173654258650e+00  9.4222310947625676e+00  9.4094216521854062e+00  9.4212104398976670e+00  9.4086007302830268e+00  9.4041872147206877e+00  9.2898484735355602e+00  9.2970155940011860e+00  9.2964155206405916e+00  9.2953013278977235e+00  9.2877823718854451e+00  9.2895586447497820e+00  9.2873754394546140e+00  9.2871238100158777e+00  9.2877935932527418e+00  9.1900092144558272e+00  9.1878734553345254e+00  9.1962649678793777e+00  9.1829792935059107e+00  9.1788096585069088e+00  9.1857462482139667e+00  9.1952847578611063e+00  9.2081122330494001e+00  9.2009291538770643e+00  9.1936008067394024e+00  9.3582811819555225e+00  9.3605108069977323e+00  9.3817683516071639e+00  9.3676352879308151e+00  9.3754631572026117e+00  9.3830800725392240e+00  9.3684227919633578e+00  9.3900621694299389e+00  9.3618284401913439e+00  9.4644346045894956e+00  9.4287668916749769e+00  9.4337267583777678e+00  9.4461657025060752e+00  9.4128070516564861e+00  9.4280743402043541e+00  9.4188868217727038e+00  9.3230899026959051e+00  9.3075777007741056e+00  9.3274188891029173e+00  9.3090799057179883e+00  9.3201921246383819e+00  9.3176817653173156e+00  9.3262502214385741e+00  9.3000348147805205e+00  9.3165013251337623e+00  9.3327143630537197e+00  9.1721159980518596e+00  9.1803745305721485e+00  9.1796582064353895e+00  9.1768757235348719e+00  9.1809967132605284e+00  9.1826339966836255e+00  9.1811312896018755e+00  9.1819889558594046e+00  9.1824782929770077e+00  9.1838803220807232e+00  9.2861388232014921e+00  9.2943394439140743e+00  9.2932500159598455e+00  9.2739695688865851e+00  9.2645250368012455e+00  9.2845986331751931e+00  9.2812123142482168e+00  9.2998301916834425e+00  9.3009288707796625e+00  9.3007153814900754e+00  9.3116483257703795e+00  9.3063320666886469e+00  9.3028095607364492e+00  9.2877480253832481e+00  9.2888623220279456e+00  9.2902651999561527e+00  9.3030921429011535e+00  9.3146930405110897e+00  9.5512402280716451e+00  9.5701689562771168e+00  9.5756089832689568e+00  9.5584449435723933e+00  9.5659272600373928e+00  9.5630218423097375e+00  9.5808005271219567e+00  9.5776638561182992e+00  9.5762028996318254e+00  9.5662883966035501e+00  9.3009377458822211e+00  9.3081352639688575e+00  9.2938277834289735e+00  9.2968458769900604e+00  9.2924584367351208e+00  9.3059237304534488e+00  9.2905652926489388e+00  9.2942888641688395e+00  9.3051486603018283e+00  9.3168223222691999e+00  9.4043744144088244e+00  9.3865112281339957e+00  9.3939730818351901e+00  9.3951663490907595e+00  9.3386661685374133e+00  9.3270959541883283e+00  9.3403851279252059e+00  9.3318160875349889e+00  9.3354669501412300e+00  9.3437942838506274e+00  9.3488332120564106e+00  9.3362761697028844e+00  9.3236249724875186e+00  9.3074799098527539e+00  9.3056983743281414e+00  9.3038956608915466e+00  9.3077688541728865e+00  9.3036351575958278e+00  9.3056242640425282e+00  9.2996636097919421e+00  9.3030639897397567e+00  9.3039616414883728e+00  9.2933464675520749e+00  9.2977257488635132e+00  9.2883956168859232e+00  9.2858265767562607e+00  9.2784950103929447e+00  9.2899204588974023e+00  9.2798123728863633e+00  9.2827494863693829e+00  9.2918700323011372e+00  9.3011944090336094e+00  9.2466754716737736e+00  9.2791160011082408e+00  9.2619296895501417e+00  9.2545115956148791e+00  9.2670232470564091e+00  9.2837059845104495e+00  9.2731994963995916e+00  9.2675525686801503e+00  9.2727997684341119e+00  9.2764427410030912e+00  9.1759524998938282e+00  9.1584365126035472e+00  9.1761856946495026e+00  9.1723205459162251e+00  9.4417265704667575e+00  9.4284353357242789e+00  9.4331954000404714e+00  9.4348674625497786e+00  9.4288922769882113e+00  9.4389629468474254e+00  9.4368289642473684e+00  9.4242156564074779e+00  9.4201922533253359e+00  9.3586457332419855e+00  9.3524013514674937e+00  9.3512939327781286e+00  9.3724366841095978e+00  9.3636599943945367e+00  9.3747470137671804e+00  9.3588182428395559e+00  9.3709195194077779e+00  9.3416384586812118e+00  9.3019304382562602e+00  9.3020786347448112e+00  9.2842668924189891e+00  9.2975343188694382e+00  9.2980897254729609e+00  9.2787887844923826e+00  9.5708970145765964e+00  9.5406871806769242e+00  9.5297872407608324e+00  9.5396945921229666e+00  9.6574584139087349e+00  9.6223820383741501e+00  9.6127473590329799e+00  9.6193522804205465e+00  9.6607901791065167e+00  9.6089860231887041e+00  9.6600384537378918e+00  9.5708884583117122e+00  9.5798068237762113e+00  9.5889113471473912e+00  9.2601459962816364e+00  9.2548209565291977e+00  9.2590676272538204e+00  9.2630174462444383e+00  9.2580164427132026e+00  9.2565794311593468e+00  9.2524317962174383e+00  9.2696721246141429e+00  9.2653290564420647e+00  9.2590370514220552e+00  9.4957104061127211e+00  9.4757515928239684e+00  9.4860495412829291e+00  9.4618234336826461e+00  9.4284644259474355e+00  9.4478630670957937e+00  9.4526440189367840e+00  9.4799114739801684e+00  9.4685028201209835e+00  9.4600561979708555e+00  9.2838476787391304e+00  9.2721887304355555e+00  9.2864512895163180e+00  9.2837543769506006e+00  9.2734644204953032e+00  9.2622698616771011e+00  9.2843163674842355e+00  9.2753058470865390e+00  9.2876445917126773e+00  9.3459753381678645e+00  9.3409862902332552e+00  9.3491553296660470e+00  9.3491013159879373e+00  9.3350178756800144e+00  9.3378023002959001e+00  9.3444520806131770e+00  9.3429201585019186e+00  9.3306080345900959e+00  9.3517186625802857e+00  9