<?xml version="1.0"?>
<VTKFile type="UnstructuredGrid"  version="0.1"  >
<UnstructuredGrid>
<Piece  NumberOfPoints="7609" NumberOfCells="33520">
<Points>
<DataArray  type="Float64"  NumberOfComponents="3"  format="ascii">3.5581603736 34.7306451021 19.1618106005  2.9735114549 34.67669033525 18.58952379935  2.68192026465 34.9544094216 19.22308499125  2.99583145185 35.6402074521 19.0260816371  2.4335025301 36.5497698021 18.8903526737  2.41118253315 35.58625268525 18.45379483595  2.1195913429 35.8639717716 19.08735602785  1.8056801557 35.1781737411 19.284359382  2.09727134595 34.90045465475 18.6507981901  2.3888625362 34.6227355684 18.0172369982  4.1236143642 34.4087266844 17.8402652395  3.9644113617 34.2687860938 16.7244826699  3.8902488638 33.98424021435 17.06851243375  3.56508793885 34.3603928271 17.2623915289  4.52293778705 34.3171199511 17.3023563805  4.9222612099 34.2255132178 16.7644475215  4.28957228665 33.89263348105 16.53060357475  3.0065615135 34.3120589698 16.6845178183  3.33172243845 33.93590635705 16.49063872315  3.6568833634 33.5597537443 16.296759628  4.6935369478 36.6833445377 19.6731281953  4.15246250595 36.8058608632 19.01345789295  4.6302387834 36.23477541435 19.07363712875  4.7991217398 36.8014403597 19.20444817415  4.9047065318 36.9195361817 18.735768153  4.08916434155 36.35729173985 18.4139668264  4.25804729795 36.9239566852 18.5447778718  4.7358235754 36.35287123635 18.6049571076  4.566940619 35.786206291 18.4741460622  3.6113880641 36.9283771887 18.3537875906  3.0197012039 33.4494988182 12.6006849864  2.2909989882 34.47994221085 12.2923344914  2.8670788672 34.5959105467 12.7058785234  2.43855731345 34.30002569905 12.8644112823  3.3006644324 33.92530017765 11.8700754366  3.44822275765 33.74538366585 12.4421522275  3.8767443114 34.0412685135 12.2836194686  1.857413423 35.1505525799 13.1281375782  2.232734164 33.7206129387 19.5517131271  0.8663317859 33.91550986925 18.4081326763  2.3107983501 34.17167425355 18.78447506265  2.044713982 33.60653514445 18.3430080613  0.7882675998000001 33.4644485544 19.17537074075  -0.6561989643999999 33.2082841701 18.7990283544  0.6002474178 33.35037076015 17.96666567495  1.8566938 33.4924573502 17.1343029955  2.1227781681 34.0575964593 17.57576999685  -0.6561989643999999 33.4487640212 13.020223097  0.53005082225 33.18025308035 13.5401542794  0.6006072293 34.29965830055 13.0741803376  0.7347420139999999 33.18265020975 12.66346528935  2.1256829924 32.9165363983 12.3067074817  1.78685701595 34.0311473597 13.59411152  1.92099180065 32.9141392689 13.18339647175  1.9915482077 34.0335444891 12.71742252995  1.7163006089 32.9117421395 14.0600854618  3.5461635015 35.7405924894 17.69362632695  4.7275502605 35.67062554995 17.8459308117  4.3452774916 35.0974664877 18.15720565085  3.706773143 35.62501174835 17.06541107645  3.3245003741 35.05185268610001 17.3766859156  4.5058871331 34.98188574665 17.52899040035  4.888159902 35.5550448089 17.2177155612  2.525386384 35.6949786878 16.9131065917  -0.6561989643999999 33.9200317078 15.2473207641  -0.6561989643999999 34.1941671057 14.48831771105  0.54317059125 34.0071339864 14.94415022095  -0.6561989643999999 33.800747786 14.72952900095  -0.6561989643999999 34.3134510275 15.0061094742  -0.6561989643999999 34.7068703472 14.7648981843  0.54317059125 34.4005533061 14.70293893105  -0.6561989643999999 33.6814638642 14.2117372378  0.54317059125 33.8878500646 14.4263584578  1.7425401469 34.094236265 14.6409796778  1.4028509171 38.0488323431 23.1834877271  1.8599019523 37.344921637 22.5736339266  1.8462106332 38.22904041285 22.64716275565  2.15482008555 37.78078689925 23.0487781114  2.906789254 37.5127414554 22.9140684957  2.3032616684 37.52512970675 22.03730895515  2.61187112075 37.07687619315 22.4389243109  2.59817980165 37.960994969 22.51245313995  2.2895703493 38.4092484826 22.1108377842  2.3169529875 36.6410109309 21.9637801261  1.2667147648 35.6423304596 22.4999996666  2.2613461739 35.824188702 21.7958165572  2.19182353545 35.89950941870001 22.28209039025  1.79183387615 36.14167069525 22.23188989635  1.6667044241 35.40016918305 22.5502001605  1.73622706255 35.32484846635 22.06392632745  2.0666940834 35.1580079065 22.6004006544  2.13621672185 35.0826871898 22.11412682135  2.2057393603 35.0073664731 21.6278529883  -0.6561989643999999 35.0001316536 17.1375955108  0.4363226318500001 35.71682837555 16.85508336015  0.49893347835 35.465130843 17.54203957495  0.9345937098 35.34755517070001 17.02535105125  1.5914550746 36.18182756495 17.2595274243  2.02711530605 36.06425189265001 16.7428389006  2.08972615255 35.8125543601 17.4297951154  1.6540659211 35.9301300324 17.9464836391  1.5288442281 36.4335250975 16.5725712095  6.0307775182 33.025163627 15.0611847825  4.92860493915 34.00813421385 14.70951815435  5.0012812672 33.29819001805 14.6232531527  5.089475901749999 33.33666945035 15.20725912025  5.8699065556 33.6966283905 14.5634438166  5.94258288365 32.9866841947 14.47717881495  5.8543882491 32.9482047624 13.8931728474  5.78171192105 33.6581489582 13.97943784905  5.709035593 34.368093154 14.0657028507  4.1481742853 33.6481752737 15.353333458  3.9865517994 33.3840375137 17.296599917  4.09551074705 33.29428156394999 16.44488139735  3.8217175814 33.471895629 16.7966797725  4.26034496505 33.20642344865 16.94480154185  4.454406504650001 33.80477536575 17.03052371925  4.7281996703 33.6271613007 16.6787253441  4.5341381307 33.0288093836 16.5930031667  3.859849604 38.9708944941 19.1842669434  3.28435274005 38.4740315564 18.80748736505  2.91878799085 38.82901082625 18.8114655501  3.20022721635 38.675383259 19.3409148952  3.5784103785 39.12452206135 18.6548175983  3.9439751277 38.7695427915 18.65083941325  3.296971153 39.2781496286 18.1253682532  3.6625359022 38.92317035875 18.12139006815  4.0281006514 38.5681910889 18.1174118831  2.5406048287 38.3798720239 19.497562847  3.483322784 40.6559837499 21.1526424249  2.88644656665 39.53261611625 21.63174010455  2.9516091603 39.15269623195 21.06237721645  3.798348911 39.63723820565 21.1506569294  4.113375038 38.6184926614 21.1486714339  3.20147269365 38.513870572 21.62975460905  3.2666352873 38.1339506877 21.06039172095  2.4198955366 37.649408714 20.972112008  2.35473294295 38.0293285983 21.5414748961  -0.6561989643999999 37.4527672768 17.5625404212  0.4363226318500001 36.94314618715001 17.06755581535  -0.6561989643999999 37.25448611355 16.9222052697  0.07908121745000002 37.766347709 17.01602082035  0.8143613993 38.0799281412 16.4695012195  0.4363226318500001 36.7448650239 16.42722066385  1.1716028137 37.25672661935 16.5210362145  0.07908121745000002 37.56806654575 16.37568566885  -0.6561989643999999 37.0562049503 16.2818701182  0.9361070433999999 36.762223704 22.2628467677  0.5809365227500001 35.84550957795 20.9021380703  0.5809365227500001 36.6163445069 20.84266296185  1.37708952665 36.3989386775 21.3901914057  0.1399540395 36.20879460445 21.7747934323  0.1399540395 36.9796295334 21.71531832385  -0.6561989643999999 37.1970353628 21.16778988  -0.6561989643999999 36.42620043385 21.22726498845  -0.6561989643999999 35.6553655049 21.2867400969  1.8180720099 36.035653651 20.5175360437  1.8972302863 29.0273792578 18.6377712638  0.7054908164500001 29.0577318315 17.5333029641  0.62051566095 28.72467060835 17.9987866722  0.62051566095 29.36079274575 18.08259620315  1.9822054418 29.36044048095 18.1722875557  -0.6561989643999999 29.6942062337 17.5274211425  -0.6561989643999999 29.0580840963 17.44361161155  0.7054908164500001 29.6938539689 17.61711249505  2.0671805973 29.6935017041 17.7068038476  -0.6561989643999999 28.4219619589 17.3598020806  2.3546453211 28.5243600953 17.6319120147  0.82789204555 28.06178596665 17.00273988305  0.78765178695 27.87972088695 17.5630297296  2.2930739297 27.93091995515 17.69908469665  2.3333141883 28.11298503485 17.1387948501  0.8492231783500001 28.4731610271 17.49585704765  2.2315025383 27.337479815 17.7662573786  2.2717427969 27.5195448947 17.20596753205  2.3119830555 27.7016099744 16.6456776855  -0.6561989643999999 38.6791560226 18.4329036866  0.9422029321499999 38.52951402325 18.9652332668  0.4723113249500001 38.00825737505 19.11657094475  0.6706152162000001 38.31258860035 18.33706674265  1.9974293968 37.9460211781 18.2412297987  2.26901711275 38.162946601 18.86939632285  1.79912550555 37.6416899528 19.0207340008  1.6008216143 37.3373587275 19.8002382029  2.0707132215 37.8586153757 19.64890052495  3.73561883405 37.9496358414 18.769027267  3.0759964464 37.6541246063 18.9256752188  3.81974435775 37.7482841388 18.23559973685  3.0527912203 34.87541204275 12.0566693198  -0.6561989643999999 32.7326658829 15.2477709416  0.53005082225 32.8222040112 14.6539282017  0.54317059125 33.41345107395 14.9443753097  -0.6561989643999999 33.20706487355 14.7297540897  0.53005082225 33.29660300185 14.1359113498  1.7294203779 33.50298920225 14.3505325698  3.8875040339 36.0348102678 22.7183793976  3.76223205145 36.3352108996 21.8215702039  3.1022285107 36.33791059935 22.34107976185  3.63458051455 35.9161938947 22.1374290966  4.0151555708 36.4538272727 22.4025205049  4.1428071077 36.8728442776 22.0866616122  3.2298800476 36.75692760425 22.02522086915  3.3816569952 35.7975775216 21.5564787956  2.84930499135 36.21929422625 21.76012946085  0.8515805086 38.8242448488 14.2865119749  1.5430119784 38.37650138790001 13.53178358845  0.5850709377000001 38.206502219 13.5752178053  1.3389606742 38.2218394124 14.0283923833  1.0556318128 38.9789068243 13.78990318005  0.3017420763000001 38.9635696309 13.33672860205  0.09769077210000005 38.8089076554 13.8333373969  -0.6561989643999999 38.793570462 13.3801628189  1.259683117 39.1335687998 13.2932943852  1.8263408398 37.619433976 13.7702727917  4.2533129766 35.8126009014 19.6598752904  3.93235052035 36.37048904505 19.0068314405  4.4101267978 35.7994035962 19.0670106763  4.4734249622 36.24797271955001 19.66650174285  -0.6561989643999999 37.0405699596 13.7473770172  0.9615368518500002 36.48121399705001 13.2099620023  0.5874322189000001 36.9875356453 13.1146960478  0.961536851850
[...]
<PointData  Vectors="u"> 
<DataArray  type="Float64"  Name="u"  NumberOfComponents="3" format="ascii">3.4997283756858138e+01 1.1737375110981849e+02 1.1413181704183255e+02  5.3974288114897739e+01 9.6727469835859154e+01 8.3453102028770815e+01  6.4725612387591823e+01 1.0887810591090316e+02 1.1975128232000391e+02  5.6064016552019453e+01 9.4671503599076146e+01 1.2827001071768464e+02  7.4270870312390400e+01 8.0095372299318356e+01 1.3262694741266219e+02  7.5907289474832027e+01 8.4586087410203234e+01 9.9529849610132430e+01  8.9605848143014413e+01 9.0460424562486310e+01 1.3280354092040628e+02  9.8984138045605690e+01 1.0098201195268344e+02 1.2776217498998702e+02  8.5115278481757244e+01 9.3496645229109873e+01 9.3990576458775251e+01  7.6465985367055197e+01 8.2228350968414006e+01 6.4178939920433692e+01  1.9314391253775007e+01 7.6891639050464363e+01 4.0095117819689669e+01  4.2175220682625095e+01 5.4329374415725603e+01 5.6186081482421519e+00  4.1717537219699807e+01 5.7953609542557516e+01 8.5710986875469946e+00  4.5719024524144203e+01 6.6090427128438947e+01 2.5276254770575239e+01  1.4263831493653404e+01 5.5655622377687408e+01 5.2937178952510937e+00  2.1132910836124122e+01 4.1162359938380554e+01 -8.9537434272467546e+00  4.1023420845404914e+01 4.7783611959229816e+01 -5.7402279387430246e+00  6.7735117472730607e+01 5.9543393235320863e+01 1.4777947529215391e+01  6.3181137751469784e+01 5.5217057287969929e+01 4.0514762067636561e+00  6.0594675450080850e+01 4.9302439404012922e+01 -5.2736051514785069e+00  -2.9387224449161288e+01 6.3417282813622947e+01 1.5382517388783415e+02  7.0142836164487150e+00 6.4027087699606241e+01 1.3515405545109209e+02  6.4352114563601237e+00 7.1612112307658023e+01 1.2495172751772272e+02  -1.7678107713661159e+01 4.2516911760431597e+01 1.2281058739739909e+02  7.1938535680084625e-01 4.4710974356238097e+01 1.0489274651305962e+02  2.2215854129993453e+01 6.9868843998314475e+01 1.0786015162976931e+02  1.0679144417549331e+01 5.9361925876336421e+01 1.1418899387357628e+02  2.1284407037531562e+01 6.9323721816520347e+01 1.0364318348170973e+02  5.0337835212922037e+00 8.1510537681794872e+01 1.0598514867578935e+02  2.9678190765129006e+01 6.3484135335581378e+01 1.1181830897522339e+02  9.0270152972797689e+01 1.0461651960555817e+02 -7.6211426912524502e+01  1.1636258814965812e+02 9.3415854978280123e+01 -1.0235864205706906e+02  1.0089981972904572e+02 9.3492744377359188e+01 -9.9880626611526068e+01  1.0486439938299151e+02 8.5381442130820375e+01 -8.2185068884064492e+01  7.7720608055396326e+01 1.0990604448642425e+02 -9.3050962557448258e+01  7.6223849544502983e+01 9.4838565922107648e+01 -9.6521454581575810e+01  4.1853450394872624e+01 1.1281337306214624e+02 -9.3007301336397816e+01  1.2804573671624433e+02 7.2450222879219623e+01 -8.0477612632954973e+01  5.3231945920577722e+01 1.3308330474867250e+02 9.6895061602188406e+01  1.1770420759061389e+02 6.9908085896971144e+01 7.7276014419709540e+01  6.9272511635952384e+01 1.0280979486730817e+02 8.0065932422529372e+01  7.5910144712276434e+01 8.6716961831778761e+01 5.1547667055762638e+01  9.5811826413565285e+01 8.5914124118736950e+01 9.3778783111183273e+01  1.8164384613570002e+02 3.3747632831786085e+01 1.1595949135830038e+02  1.2784799095388976e+02 5.0858694151397344e+01 6.0990254792343023e+01  9.4778503869722215e+01 6.0134796133898057e+01 2.5613674118827177e+01  8.5470665509584862e+01 7.0152018768721447e+01 4.3064998318848659e+01  2.0003289757766731e+02 4.4270588287328948e+01 -7.8525955480877570e+01  1.4399025192037800e+02 5.1740039118830126e+01 -5.2943863374706055e+01  1.5420956057684904e+02 5.7928897946713199e+01 -7.5063906034986630e+01  1.2735868035038723e+02 6.2957831040314645e+01 -8.3482063131473595e+01  8.0515681633828663e+01 1.0878789468510696e+02 -8.0206124568699849e+01  1.1637754599526183e+02 6.8255685341553772e+01 -5.6182937395901398e+01  9.3493935524203138e+01 8.4615471009684455e+01 -4.7459089496025335e+01  1.1183930847366007e+02 8.3057978371566037e+01 -8.0928854490896939e+01  1.0555222156309227e+02 6.3914987330862132e+01 -2.7526771539974323e+01  3.8901680336751369e+01 6.8447672499221014e+01 6.8104330212156924e+01  -1.0191997770649653e+01 5.8416785414165560e+01 6.9302433866241216e+01  1.4490552303892489e+01 8.4355964643739611e+01 6.8760547035869052e+01  3.6987711736435806e+01 5.7064132725549875e+01 3.9074040613081515e+01  4.9968395499714575e+01 6.6924882830215310e+01 4.4272656205364271e+01  8.3733746488391283e+00 7.1091379670324628e+01 3.9747542383409495e+01  -6.5745433004638478e+00 4.7940233889956623e+01 3.2611608135872579e+01  7.5472827693993537e+01 6.2613431831298342e+01 3.9898733196653417e+01  2.0035753524831352e+02 4.6958615109589019e+01 -7.5836673833745731e+00  1.9961611561398178e+02 5.1364705847710809e+01 -2.9853372859070291e+01  1.5256279675332965e+02 5.1311462876180116e+01 -1.7108787399164573e+01  1.9988429185066391e+02 4.6796917199876042e+01 -2.1925233551612319e+01  2.0008176561154914e+02 5.1924082285322989e+01 -1.5116607017252386e+01  2.0027160687912462e+02 5.5830273954315402e+01 -2.1905291277233648e+01  1.5497180367916860e+02 5.5514074395425510e+01 -2.5448814001418000e+01  2.0066354334901067e+02 4.5568330712480638e+01 -3.7549415190221708e+01  1.5268710580531163e+02 5.2777379839018160e+01 -3.1309116871094361e+01  1.1525759663831296e+02 5.9062135793900524e+01 -2.8652266755179273e+01  1.8219985220529196e+02 4.5022044191889393e+01 4.1699408683013814e+02  1.9770674096247859e+02 3.6762967288070826e+01 3.8559727285442210e+02  1.7656475102569732e+02 3.0662490969639634e+01 3.7127474144011069e+02  1.6844236090945722e+02 1.0443274424504775e+01 3.8797285415887546e+02  1.6412146617250221e+02 -1.1351674628269624e+01 4.0716660654866473e+02  1.5910690409141185e+02 3.5806110351319703e+01 3.5511755039184590e+02  1.7688505875552477e+02 1.6775323271766045e+01 4.0824852535112745e+02  1.5001357783753744e+02 1.5146942154673511e+01 3.7872784326953609e+02  1.4347259074222393e+02 3.0457766353076412e+01 3.5138321768021615e+02  1.8439666526209135e+02 5.6975578946225774e+01 3.9033881984546167e+02  3.5912125218271137e+02 1.5052982248279295e+02 3.7648236957764800e+02  1.9952269615664375e+02 1.0833747348549905e+02 3.9948033649231530e+02  2.3762629079618148e+02 7.6227800612822492e+01 4.5930148565826056e+02  2.5711788126129460e+02 8.3809863066669280e+01 4.1877300485538814e+02  3.6559211135006586e+02 1.8371690217052063e+02 5.2051128225671255e+02  2.8798124878650833e+02 1.6385802250359521e+02 3.7798671161371931e+02  3.9246946755905327e+02 8.9217560915583704e+01 6.2257282184525195e+02  2.8111093567625142e+02 1.5672242849009982e+02 4.6239725443381587e+02  1.8876226100606340e+02 2.1689240704008827e+02 4.0131835343118109e+02  1.9996439477921004e+02 6.5958312628666391e+01 5.1271205780578939e+01  1.5199119169790745e+02 7.2677392573605019e+01 4.5471165215275100e+01  1.4910652177352401e+02 7.3870098970377100e+01 6.5574116102853210e+01  1.3283722138044425e+02 6.7942506961695116e+01 4.7744795325952985e+01  1.0419065778862630e+02 7.0698652043214423e+01 6.1109875201560534e+01  9.1043294082574093e+01 6.3520953375475052e+01 3.9889281054791510e+01  8.7470441117641073e+01 7.0539484339691072e+01 6.2441160005084711e+01  1.0361107188372337e+02 7.7641536711193723e+01 8.2745581716608882e+01  1.0627282697648465e+02 6.5006681430954373e+01 4.0499564248206369e+01  2.5010974401211733e+01 1.9097412102288565e+01 -1.7594369040219831e+01  3.3606199469937195e+01 4.3305065678698163e+01 -3.2634435349697142e+01  4.0037169091941387e+01 3.4425728597073295e+01 -2.8209063400229411e+01  3.9990275149520770e+01 3.0295370405872397e+01 -2.2806892900346249e+01  2.0719039127164287e+01 2.9264424085857119e+01 -2.4733828912103306e+01  2.6140184103737003e+01 2.9590528127508442e+01 -2.2478246571194376e+01  2.2010972067240253e+01 2.6077668192110600e+01 -2.1643455881396747e+01  1.5556291918744785e+01 3.4017840410408496e+01 -2.6949039075495421e+01  3.7484236257285497e+00 4.3870319636957731e+01 -3.4587172792006719e+01  5.6566912258585688e+01 4.3869436679015664e+01 -2.1209958799860509e+01  4.0127659844951076e+01 5.4343101326248245e+01 -6.5953939601528655e-01  5.2832070449589757e+01 4.2508153290655159e+01 -9.5971821777812458e+00  5.1744357163079663e+01 4.9979670142705892e+01 -1.0279030551283965e+00  4.0896221713930203e+01 3.9965158908134796e+01 -1.0056832215057197e+01  3.1731568157535008e+01 5.3863860554067038e+01 -5.8539945955683255e+00  3.8465749480889997e+01 4.2025582155425916e+01 -1.3987608777401542e+01  4.7167536645671753e+01 3.3377757870261327e+01 -1.5619475466968312e+01  -2.9179838074836528e+00 4.4683518039397335e+01 1.5790923464976774e+02  2.0901379707762089e+01 4.9784326367830175e+01 1.3738909385580769e+02  3.1966319834411845e+01 5.0852324837321333e+01 1.3362258265544534e+02  2.6983233086663258e+01 4.7676541988582137e+01 1.6415314989669736e+02  7.3631964750048484e-01 3.7768516161896763e+01 1.3879616938115362e+02  -8.9065914903309213e+00 3.3379091628392572e+01 1.2976047377217103e+02  4.5697980220941901e+00 3.2020966807813004e+01 1.0449931905614596e+02  4.0938672726953342e+00 3.6492228834149067e+01 9.4413555059200633e+01  2.0102455126163288e+00 3.9146918047551857e+01 9.6621281103107833e+01  5.9107322384713321e+01 5.7023933974906697e+01 1.6659237280209331e+02  1.4584105051004453e+01 -5.5347368525566026e+01 7.0251533736409456e+01  2.2475275003147090e+01 -6.1001040546575958e+01 3.0996062778487754e+02  5.4498511083295099e+01 5.8070699738771410e+00 2.6833210107168753e+02  -1.0751615174868476e+00 -3.5737062338790508e+01 2.1392088226979584e+02  -2.1877128719770916e+01 1.5208900929893254e+01 3.0792162525458116e+02  6.1216642312479394e+01 8.4251564240444488e+00 3.4120340860875257e+02  4.3682165380393251e+01 3.1646020716702118e+01 3.0373257270308318e+02  1.1181531260417820e+02 5.3865846804557407e+01 2.7948415065370983e+02  1.2629431424445022e+02 3.9879047267318654e+01 3.1348295818875317e+02  1.7952033744244616e+02 1.5230145251222021e+02 6.2158127708900047e+01  1.3783433441731862e+02 9.2381741644372298e+01 6.4707133688349217e+01  1.9153968244303675e+02 1.2704365067585644e+02 6.3605184143862246e+01  1.2148949067158118e+02 1.3044563129915716e+02 8.4475242117960420e+01  1.0786517531296262e+02 7.0587331916852278e+01 8.5859241980386926e+01  1.4412163719567991e+02 7.7606144909890261e+01 4.1972105164207349e+01  1.0728211142057881e+02 6.8215516410898118e+01 5.3075007648600902e+01  1.4055477740277439e+02 7.9841737490046896e+01 7.3210775350153824e+01  1.8903870403661466e+02 9.8731434697827567e+01 5.4518598178465616e+01  3.2882455196089415e+02 1.1039656805514436e+02 3.1484903938245321e+02  1.9513726177871314e+02 1.0245287005278335e+02 1.7868829928907036e+02  1.9500829061909766e+02 9.2507955593330820e+01 1.7932968511437724e+02  2.0594990367891108e+02 1.0035222791727591e+02 2.6685727817602367e+02  2.4804580482079749e+02 9.6923144344096372e+01 1.5782533895337585e+02  2.6225051923751704e+02 8.7240176083727150e+01 1.4003870269476189e+02  2.1415796004143081e+02 9.4665123398147600e+01 1.2818645139308362e+02  2.1013123313390426e+02 9.3865377355212331e+01 1.3636005717509894e+02  2.1963903168425529e+02 1.0357661558610715e+02 1.3399530093106719e+02  1.3344351193064074e+02 1.0810741185874505e+02 2.2423621065185111e+02  1.7664821117347781e+01 -1.8668562506195047e+02 -8.8750397801732035e+00  9.8717737528172364e+01 -1.8258210267707133e+02 5.1396703284859107e+01  1.0062165634777642e+02 -2.1440997444142079e+02 4.1249120989141396e+01  9.2745980726087126e+01 -1.5807098261066690e+02 3.4185361845660090e+01  2.8429099197431071e+01 -1.6676635311227793e+02 1.4112034813231096e+01  1.9741030789169812e+02 -1.1708624004945689e+02 6.3178813004941986e+01  1.9968744570563322e+02 -1.7351072909238653e+02 6.1670612736528135e+01  9.1459671750660888e+01 -1.2600399782617619e+02 4.2633681033506633e+01  2.1696805207425129e+01 -1.4399463775706272e+02 2.0943735476543150e+01  1.9757380831066510e+02 -2.3563973953757775e+02 6.8009612124359194e+01  -1.2168902313690060e+01 -2.2203702682211639e+02 4.6935318372825350e+01  1.0254188729033876e+02 -2.7101190011823962e+02 9.0064980989933531e+01  1.0684926414297460e+02 -2.9961998081710215e+02 6.8586111865192407e+01  -2.9557461384563016e+01 -3.6034285648722880e+02 6.2543744859088932e+01  -5.6974824051141923e+01 -2.7037092844044156e+02 1.0983502220268285e+02  9.4802410908647289e+01 -2.4641807978736475e+02 6.1208003667745984e+01  8.8000134578556370e+01 -5.1607148834842542e+02 7.7252946754657017e+01  -2.9357099204358839e+01 -4.5239203879578093e+02 1.5718291587197044e+02  -6.2952105742997851e+01 -3.2706551376688282e+02 1.6820147655976405e+02  1.6095275812183010e+02 1.4752921459508599e+02 3.3122004218429673e+01  1.0561441575370151e+02 8.9717607449983120e+01 1.1382622880280795e+02  1.4092223367429662e+02 9.6101677502746043e+01 1.1675205505524659e+02  1.0533448220393849e+02 1.0582021896181119e+02 8.5961900664629979e+01  6.9622508395271112e+01 7.6504682986845538e+01 1.0758760765247690e+02  6.4458097943791884e+01 6.4937614403938852e+01 1.3289600774594172e+02  8.9853017790872315e+01 7.6909832659887215e+01 1.3493781164819964e+02  1.1564419781570062e+02 8.1295288341546652e+01 1.7313031441283567e+02  8.8079194489740914e+01 6.6265485005513810e+01 1.6986198381515447e+02  1.0426415760787087e+01 5.0762042462863342e+01 1.3289528445862567e+02  3.9877837292824971e+01 6.2072645318914134e+01 1.4247778400924705e+02  1.7685408331469230e+01 5.2551497046282918e+01 1.1043721821595327e+02  1.1064509206284410e+02 1.1711194150885656e+02 -1.2618800612406612e+02  2.0074884051207098e+02 2.5610847403168776e+01 -4.5680443501532535e+00  1.4474194204690249e+02 3.7194286383014536e+01 -1.8847933144648469e+01  1.4952121068232302e+02 4.4324110694135300e+01 -1.5380045457383948e+01  1.9991263000891516e+02 3.8698748328301789e+01 -2.0658209413118701e+01  1.4801435561673094e+02 4.8006145703517312e+01 -3.6315478165197099e+01  1.1197869601241329e+02 5.9304868777119708e+01 -3.0865261657533793e+01  2.5133602716049398e+02 -1.2044385513759842e+02 5.4927810551482139e+02  4.7930093667656870e+01 3.0179138200412513e+01 5.7786322905377062e+02  1.7188021215041476e+02 5.9395911111547344e+00 4.8061182847898965e+02  1.6002510599203504e+02 5.4548296353540792e+01 5.7607792563570729e+02  2.2937727579097375e+02 -4.5398823240565854e+01 5.5969532424352008e+02  1.1882224818572666e+02 -7.4053376920716243e+00 5.9991441448389946e+02  1.3006480866567651e+02 1.9839310677167674e+01 4.3817442028539358e+02  6.0304222356262045e+01 1.0829814622355283e+02 4.9666439546194545e+02  1.4771734201455459e+02 5.9989212934365426e+01 4.3229864398015036e+02  1.0139223570823440e+02 4.4861676763362148e+01 -4.7541199093196269e+01  1.1422144379466775e+02 2.8852191432576383e+01 -9.2029595815005834e+01  1.3507211589758006e+02 5.0953991113837915e+01 -6.6536001633500135e+01  1.1220159525803898e+02 3.5665184513378861e+01 -6.5178594191515444e+01  1.0898250482126748e+02 3.6114967864530087e+01 -6.3231741260338055e+01  1.4502263419755619e+02 2.0758192069009006e+01 -5.4942804190117499e+01  1.0510766800456217e+02 5.7985574086634855e+01 -6.6641761907424737e+00  1.5552722888080461e+02 5.9263783739240509e+01 -2.6192754491757814e+01  1.1339974915376669e+02 1.7066129238960080e+01 -9.3161596314054663e+01  1.1403306461241777e+02 4.0945851352563857e+01 -8.2000775670591381e+01  5.2625188562139487e+00 9.0650598176305976e+01 1.5379996761107270e+02  2.0214202154289588e+01 7.5325630741010329e+01 1.3345384449777487e+02  1.6010802708518590e+01 7.4684931467378249e+01 1.2995338352481122e+02  -8.8497347807460756e+00 7.8642825068124012e+01 1.5279719525734797e+02  1.9824926685289367e+02 7.0047818058336929e+01 -5.5371282878213727e+01  1.5222314520008919e+02 6.2148882513649788e+01 -7.7936385983871560e+01  1.5952194811913341e+02 6.4745262561063328e+01 -8.0244897726470882e+01  1.4498601876497045e+02 5.9415305384177508e+01 -6.5504001126576100e+01  1.9873468986319617e+02 6.7490272646375246e+01 -6.8623863413907443e+01  1.9990709051715280e+02 7.0241777245704142e+01 -7.8544691444031955e+01  1.6342821030923403e+02 6.7649088342551863e+01 -8.9739352493739347e+01  1.0857642949703811e+02 6.0925894064426572e+01 -9.3025058735616568e+01  1.3065486587497540e+02 6.2958866788926649e+01 -1.0891982105902888e+02  1.5135670968361211e+02 6.6123915238099499e+01 -1.1539631995063809e+02  8.9421869038365926e+01 3.7958744872477766e+01 -7.3623915560653828e+01  8.3798955807601615e+01 5.0123176944404918e+01 -7.9954990782749718e+01  9.6814354959330984e+01 4.8062234255922093e+01 -5.3171069739345157e+01  1.1419982904313396e+02 4.9100793877607302e+01 -8.9841081950588304e+01  9.9816973581967261e+01 4.1271372103172062e+01 -4.5141020543000629e+01  8.8979377187202559e+01 4.6104121401931977e+01 -6.5441213498140565e+00  7.3173783693471677e+01 4.0480510034537424e+01 -3.2106920723899854e+01  5.9815426785096811e+01 3.8058524130448525e+01 -5.9751331587130508e+01  7.8056976216143141e+01 7.4011357276470847e+01 1.9051684675126242e+02  8.1321241266981076e+01 5.7519033360722915e+01 2.1417014130093617e+02  1.1108350997597852e+02 6.5840906803419188e+01 2.1786537979346980e+02  6.4275578530143207e+01 6.2831192715970822e+01 2.4486348385307642e+02  3.3697557564243539e+01 6.9080112900121122e+01 2.0203014401724482e+02  4.9250561133125800e+01 6.0479544023024964e+01 1.8568526357037780e+02  6.4599723385250726e+01 4.7557693674932288e+01 -3.0839476637157532e+00  6.5186771764400063e+01 5.4981314695629941e+01 5.8664302187787349e+00  5.7836423679442504e+01 5.1746148792547118e+01 -4.2766863064375418e+00  5.3555063677191121e+01 5.9601348038100554e+01 1.1253144929313359e+01  6.6515629960200570e+01 4.6936394864736080e+01 -6.1979820311590714e+00  9.1629965732978022e+01 1.3169958031436806e+02 1.3214047856083064e+02  9.8798686853089393e+01 1.2059398380549669e+02 1.4538526813428166e+02  6.2417969685228613e+01 1.2646981019721657e+02 1.1881421180003100e+02  8.8626592853379492e+01 1.8515434441854671e+02 1.6682072162536974e+02  7.0422497598380573e+01 1.7432502350683259e+02 2.0226121851075391e+02  8.0976416139155702e+01 1.1394711182056906e+02 1.1157752589838826e+02  8.1714990851667338e+01 1.2706084590229224e+02 1.5856742125906348e+02  5.9402442047649899e+01 1.4728858894803037e+02 1.2855519440945511e+02  7.9277286049429691e+01 5.6027896150949658e+01 -2.2124987321579979e+01  7.3730556165151313e+01 5.3331182493909722e+01 -3.2466598876880526e+00  9.2057131069237656e+01 5.6510858740901085e+01 -1.2950829011317879e+01  7.0076748786954084e+01 5.3067970196962357e+01 -3.6903679968188541e+01  6.2357358178116563e+01 5.2019228834187039e+01 -1.5918701393228901e+01  4.2194748991511005e+01 4.6150364792765878e+01 -5.7554893483041401e+00  8.2228269677427548e+01 5.0490534996232789e+01 -2.5322213723833226e+01  4.9783389536742376e+01 4.1482567921894976e+01 -2.9238684958583384e+01  1.0627791562974429e+02 5.8340473171628936e+01 -2.0649070539044208e+00  5.4964710663670459e+01 7.6787517585277641e+01 8.9932861467224981e+01  3.7606495974871891e+01 8.4525697668731524e+01 7.9570926315606641e+01  7.6745316191809181e+01 7.0305544880287712e+01 5.3863203673548121e+01  5.0787389974236447e+01 6.4738568449730508e+01 7.4510931201198019e+01  1.0241241591984330e+02 1.2449448956041007e+02 3.1673081665973547e+02  9.7409434560842044e+01 7.0164139364081421e+01 3.4546050884027454e+02  1.2332885451664083e+02 8.3039593460850725e+01 2.5661024579857150e+02  1.3791987306842040e+02 6.0557434155946325e+01 3.2586716963662292e+02  1.5669465305037630e+02 9.4587824990375537e+01 3.0907791109581080e+02  8.3252186413076430e+01 5.2213329346667642e+01 -1.2648117520615179e+00  8.9798389035668450e+01 5.5059858202598456e+01 6.1531728226992151e+00  9.4654198374993740e+01 5.5624113958797416e+01 -9.7564273087139934e+00  7.4202365437732638e+01 5.5718495918421723e+01 -2.9377109563993669e+00  6.9728846859987868e+01 5.2717168955192271e+01 -1.0394048839444146e+01  1.0625713026122044e+02 5.0723590881117140e+01 -4.1537267490647622e-01  2.7629564611512347e+02 3.0446242842162508e+01 4.6722993902605043e+02  2.1696153326595922e+02 7.3228682989979575e+01 3.8293985751872896e+02  2.7453666844686512e+02 6.9044618938281431e+01 4.1477088332181046e+02  2.3087593022090795