<?xml version="1.0"?>
<VTKFile type="UnstructuredGrid"  version="0.1"  >
<UnstructuredGrid>
<Piece  NumberOfPoints="7977" NumberOfCells="32115">
<Points>
<DataArray  type="Float64"  NumberOfComponents="3"  format="ascii">36.27050529566142 7.804569056589864 16.97167221427714  36.97725296020508 7.657073974609375 16.62412071228027  36.28311580116251 6.682203531365832 16.22747954053423  36.13110777964312 7.653776658245667 15.9758116557476  38.69738327303237 13.23822965441951 8.32691582318477  37.49216068403028 12.21648981040125 8.095694586986866  37.85860307693361 13.34811827491466 7.325810020631831  37.95977437383005 12.28354938211154 6.998117904514942  30.64437377264134 11.37147853416973 19.82816663019022  30.51594176280439 11.02709247024003 18.67815661363122  29.92925071716309 10.72019958496094 19.44116020202637  29.92853927612305 11.57324028015137 18.9993896484375  21.03409957885742 8.78461742401123 10.55300998687744  21.30166053771973 7.901186943054199 10.84792041778564  21.36915016174316 8.171031951904297 10.1128396987915  22.36276436617244 8.597539233028813 10.61816818955646  29.10530090332031 26.69252967834473 10.41199970245361  29.14584922790527 26.64089965820312 11.44569969177246  29.53557014465332 26.04458045959473 10.66683006286621  30.14404286704422 26.40705006988062 10.61976678078266  33.79529719572293 37.82231186645824 3.864786625055443  34.3938394599971 37.89076861304078 5.208061247066808  33.43042305305257 37.38396579764058 4.957627561281092  34.49010617097758 36.44004186963532 4.309859156442432  36.79878997802734 9.262807846069336 1.688738942146301  37.71601104736328 8.986710548400879 1.475877046585083  36.92537548696308 9.680748230313407 1.11326724399744  37.71846697675683 9.975918589153887 1.642675675665137  34.47758744981274 20.15803175558824 11.96646133278214  33.14431223793618 19.87099931381992 11.08130251047864  33.20602282911165 21.12083503102667 11.22386861672173  34.37398879105031 20.07940661233148 10.70552039406703  39.01948928833008 10.41880989074707 4.076076984405518  39.89416122436523 10.55445957183838 3.09207010269165  38.60103491872403 10.40396716201348 3.170662717759796  39.22837391125374 11.01302194511639 2.956748844384833  20.36175918579102 2.874850988388062 0.961434006690979  21.00355911254883 2.595230102539062 1.628700971603394  21.07645034790039 2.752063989639282 0.72154301404953  20.84861203156106 3.692124628484151 0.9315539270021167  29.25046920776367 27.57793998718262 11.8153600692749  29.54140090942383 28.39926910400391 11.78724002838135  30.05015506795884 27.18874930182324 11.59442604878012  29.85032277021046 28.41360759720264 11.2002346948937  29.96954042090799 5.931498107958321 16.34925062127462  28.7326602935791 5.373396873474121 16.42074012756348  29.81176761481482 5.372454313376782 15.22950366398091  29.99832225048316 4.714209678815946 16.77983365636649  29.58476955580748 4.180337354026403 13.81341182107154  29.73995585345849 2.827532549386091 15.09661670670637  30.61189025695047 3.487983905618298 13.72035102433655  30.67495180416977 3.73195654757969 15.25478309547147  34.55665605447114 21.69606344716639 3.303952122716239  33.30633163452148 21.30986022949219 2.482315063476562  33.97246932983398 20.60836982727051 2.805136919021606  33.56709023005264 21.1158705144635 3.419158898785183  35.86180025132963 37.88812912451007 2.273364802673123  36.42772639077702 37.08406681891518 0.8516958971841004  37.35396142039775 37.35692138694101 2.003295804251904  36.52120949076065 36.33433422070804 1.813102516681819  34.94326019287109 10.70890045166016 11.27241992950439  34.88917922973633 10.00642967224121 10.7487096786499  35.81557831663489 9.612654936079863 10.73680525499108  35.20242796124673 9.811945992018693 11.90035416830367  21.9540901184082 2.000858068466187 1.894482016563416  21.64191055297852 1.985077977180481 1.055714964866638  21.9579613357161 2.97375382137029 1.189585329139248  22.79132416309668 2.109449131111028 1.151119891189051  35.62075158271717 28.40809927005136 6.862359012907198  36.54984335346739 29.35114850414535 6.261022895437693  36.66511154174805 28.38151931762695 6.234254837036133  36.14698028564453 28.93998908996582 5.843766212463379  38.14068984985352 17.92959976196289 5.671009063720703  38.53730010986328 17.822509765625 6.394937992095947  38.01125214743581 18.65569125556476 6.30765730975271  37.77624126086449 17.47761647868599 6.649381574429477  30.15699005126953 6.171529769897461 1.042019009590149  29.71379677277519 7.036829282942218 1.601473144800597  30.66994496568236 6.857468284480124 0.8470039064076924  29.7914330287247 7.427235814350977 0.7771189500792854  35.52630637991624 35.89965167555094 2.703604196956297  35.7277090350715 36.31279524351066 1.111273694537301  34.99109376442938 37.03800329070917 2.240002234695941  35.14735463582582 19.25467770425868 8.836748956366401  36.18706447945925 18.22284776024765 10.03073471096375  34.74067797813256 18.97623647280767 10.2585980605128  34.84428511463472 17.76768588240506 9.287543329036389  35.46606826782227 4.49711799621582 6.799996852874756  35.53961181640625 4.073735237121582 7.413384914398193  34.95781993521722 5.099047491174808 7.949297284878683  34.38180860518791 3.910243316789603 7.366529112726931  31.41110038757324 1.763851046562195 19.14656066894531  31.91144943237305 2.339658975601196 19.53720092773438  31.9555492401123 1.197139024734497 19.44910049438477  32.33199506114638 2.056375934111254 18.74650962761408  27.50148963928223 9.181827545166016 9.156952857971191  28.06229972839355 9.524838447570801 9.570474624633789  26.9088852770499 8.98329016141453 10.22356945774697  27.8948115965734 8.589206851277629 9.870086022789822  36.7329461664926 17.94403928536989 1.500892701696348  37.3792253498674 16.4286698381808 1.499936804283382  37.35671103640277 17.72320200760723 0.9011125007477829  37.81230799124743 17.61735888698732 2.590572037657776  12.89505004882812 16.54416084289551 0.6787459850311279  13.85200945460305 16.67835238935003 1.043712675952529  13.34521961212158 17.43120956420898 0.6693580150604248  13.13794040679932 17.06151962280273 1.132534027099609  35.12316408715323 17.08114685410702 3.143560375530884  34.74761962890625 17.74810028076172 2.723489999771118  34.10531669061659 16.77841197789907 3.167351811680009  34.04207229608372 17.60073405107889 3.514044876671245  33.76773834228516 19.80286026000977 3.029623031616211  32.86294174194336 19.51552963256836 3.073261976242065  33.56578826904297 18.94057083129883 3.028676986694336  33.11169596217979 19.98944222727051 3.940632093918834  19.1392685311078 1.073145216937609 3.529401935230745  18.67819976806641 2.324219942092896 4.370869159698486  19.14717383116193 0.9402977468669977 4.643675149222178  19.72853304118464 1.792240259611226 4.158063189645272  35.67516086543636 12.3114326509223 12.07023701696516  35.84092518447877 11.16655659155479 12.30099509291965  36.17136861878267 12.19424790042177 11.06423916821011  37.42203263784408 12.01340904004444 11.29749816428754  37.04449972744182 19.30790250403132 8.907878929114716  36.35868729869061 19.73597852706065 6.661378070023307  36.74509316120012 18.25556357431419 6.843193508910413  35.93160701513679 19.95286922238614 8.02532554465607  38.09925842285156 22.49547004699707 1.941405057907104  37.3685302734375 22.8817195892334 2.189084053039551  36.96909396594347 22.01133084875413 1.29430516362121  37.46002340767094 21.43680558450563 2.185633296018325  29.34850256259118 9.995251699638656 15.05494005467845  28.83162069526015 8.623604540092137 15.16803109736556  28.97625148982716 8.485325708149087 16.24085581032816  28.23422795163054 9.549784864852839 16.03836117172663  24.64022121913131 20.52479818049426 3.111516921622141  25.53210067749023 20.91554069519043 3.662621021270752  25.40014418965537 19.7409081813928 3.504540786081332  25.47844600587739 20.93652764537671 2.782781689627657  29.13170051574707 30.01021003723145 3.273844003677368  29.35268974304199 30.17313003540039 2.697108030319214  30.23012521553307 29.65225153619151 3.683384647441272  29.89034002419086 29.04050950433894 2.709607936177886  30.69807052612305 23.24926948547363 0.6441900134086609  31.66411018371582 23.35832023620605 0.7113509774208069  31.20569038391113 23.95004081726074 0.1048400029540062  31.22906115201452 24.40707403224135 1.222138036314864  32.01638849884263 10.94415653337042 18.71429619226365  31.06505478830908 11.64268835655244 17.86154741542174  30.77636097890473 11.83784141278829 18.64145513050224  31.58766724653982 12.35453557960035 18.74514318948447  31.83727073669434 5.94587516784668 9.903904914855957  31.67558941695626 4.595054054366163 10.49848689304597  31.10948102845531 5.533461568044419 9.594917103120412  31.92631978711043 5.239517382691608 9.112388835744614  34.3404881352651 9.329009466997626 17.25081331783665  33.66269113524577 10.41941581896145 16.1872750518054  35.8785498371431 9.874066524989214 16.18878220206615  34.68465619512765 8.965990858381733 15.3316538901436  34.55302241240032 4.242586094922165 10.42152226693347  35.72824859619141 3.347516059875488 10.73729991912842  34.2281194830874 3.301355788074547 11.30491997313206  34.9526150322868 3.081312797080543 9.566379380122504  37.50466918945312 9.14921760559082 17.32272911071777  37.11341857910156 8.52647590637207 17.73405075073242  37.27751922607422 9.205104827880859 18.16254997253418  36.43181595992006 9.040974810108917 17.22018951563899  20.12671089172363 13.3067102432251 4.255146980285645  19.97628974914551 13.347900390625 3.330013990402222  20.00333976745605 14.0985803604126 3.970668077468872  20.97857083401565 14.02984470929367 3.467493774729083  36.99175071716309 9.649038791656494 0.3946195058524609  36.74039077758789 10.16604995727539 0.1048400029540062  36.28715037048399 9.990343584102757 0.8970269887632627  37.4044138188775 10.06997001839966 0.7171075193926539  32.57519804994809 22.41262138236794 12.92795035234282  33.9778879536516 22.19010722855084 13.78993211627575  33.2496521028332 23.6003932529205 13.06044505852347  32.45934917860564 23.021605950
[...]
<PointData  Vectors="u"> 
<DataArray  type="Float64"  Name="u"  NumberOfComponents="3" format="ascii">6.7496425633042610e-03 4.6809334346293177e-03 -1.6016815852088591e-02  8.0893216573940782e-04 5.8141623006469747e-03 -2.0090987301564840e-02  1.1056873717077139e-02 2.9662872017010549e-03 -2.0712399793648920e-02  1.2621352140388484e-02 4.0028350092079232e-03 -1.9005860855338366e-02  2.0910754042397901e-02 2.6715744989453550e-03 3.1350304825521632e-03  1.5616968941927000e-02 7.4267538234105519e-03 3.5897947657012315e-03  1.5031709166801228e-02 4.1109464051162815e-03 5.3800374960762901e-03  1.6943702007215740e-02 7.0940707797405560e-03 7.0706452118856214e-03  8.5871417703155938e-03 -4.9357013743801213e-03 -6.2669726647960750e-03  1.3402397733402387e-02 1.4103667318647044e-03 -1.9800494586559238e-03  4.5455078502021871e-03 1.6857516319721975e-03 7.6819588401374856e-03  3.1711872177750833e-03 1.4159434172001731e-03 -1.0756056632785496e-03  1.2650358173369612e-03 -3.0506518021892006e-03 -9.3890181748330134e-03  6.5605632064610724e-03 2.0702204891338634e-03 -1.4766696550091205e-02  4.7716358991532265e-03 -5.7460594467531635e-03 -1.2635938239831137e-02  7.9070044585534908e-03 -3.7516442650757510e-03 -8.7516105163887113e-03  1.8529515116119815e-02 -2.4307518577911174e-02 8.5495504689189639e-03  6.3441051896261005e-03 -1.4811754598069736e-02 1.0063784055698388e-02  9.6061192440648323e-03 -1.5052932065998814e-02 3.8437504666359620e-03  1.3535316668484596e-02 -1.2541967259985194e-02 3.5561588762429075e-03  8.8021019317784232e-03 1.0778450857506054e-03 -3.9282285426341917e-03  1.1735646805539877e-02 2.2605834809183004e-03 -4.0107543288351692e-03  9.9054358884676577e-03 8.8252275961746903e-04 -6.0253516969444891e-03  8.7180498145869676e-03 1.7920406585264991e-03 -3.7919951787035847e-03  2.1421900056233574e-02 -2.5323936217155466e-03 1.1555557409547580e-03  1.4896280208466060e-02 -2.3395710842431818e-03 1.8119765793813299e-03  1.9599725381206742e-02 8.0068918814656944e-04 8.1494346524322333e-04  1.6697287420813747e-02 1.2192564254326654e-03 1.6204794416121617e-03  3.8485294057031974e-03 -8.5116833423336919e-04 -3.0139059346245339e-03  3.2561677380039491e-03 -1.2351172543680824e-03 -2.7130587446324941e-03  4.1609623932129325e-03 -3.3606112427752455e-03 -2.9080987285698165e-03  4.6678703964345468e-03 -1.0107959774152482e-03 -3.5632319011568033e-03  7.1888337853794025e-03 1.1940733454683511e-03 -1.4597317499541736e-02  7.5951985482569984e-02 1.3476395858871493e-04 -2.9740625500958226e-02  1.5954460741030838e-02 3.3221074444521972e-03 -5.7776881278908433e-03  3.4405706411369780e-02 -4.4794332842426122e-04 -1.6325266071170946e-02  4.9773518212930828e-02 1.4458890254773045e-02 -2.1345724148100222e-03  3.7441652094954314e-02 -8.9270546609186673e-03 -7.6926457915183957e-03  2.4360895326771995e-02 -1.2640409994422697e-02 -5.7475794658144825e-03  2.4673819409138788e-02 6.6078135816306236e-03 -1.7430791225056964e-03  1.1413230688852733e-02 -1.6027923204853026e-02 1.8969661061175397e-02  1.8436095197210459e-02 -1.1754809210170502e-02 1.8994149617118972e-02  1.4027385634532853e-02 -9.8199766881269003e-03 7.8881665145862159e-03  2.4888287689546918e-02 -1.3776253606836934e-02 1.3537221428464643e-02  1.5082055120247136e-02 -2.4808753154024885e-04 -6.0525892540286338e-03  1.5038129033944012e-02 3.9992688929060844e-03 -1.7633829857517339e-02  1.0090955598648874e-02 7.2328851246461501e-04 -5.2239539463784200e-03  1.7256952201185689e-02 1.2209265906753825e-03 -4.0568827474567895e-03  8.1138389702456199e-03 5.7298099850357275e-04 -2.8994080575702979e-03  9.9082923724379338e-03 1.1221894523836347e-03 -6.3681860897666642e-03  9.7669845231316797e-03 1.5921860514052186e-03 -2.8451321795521446e-03  1.1454130503050761e-02 1.8470443568480376e-03 -4.3060980586758736e-03  1.6312408687297379e-02 -7.3474753748889489e-03 1.6150227590044589e-03  1.6892299721336303e-02 -8.3961136221925997e-03 4.8716337493602291e-05  1.9158327629370676e-02 -7.6525859083157559e-03 -2.3877521992961873e-06  1.8231117917627958e-02 -6.9393929860160734e-03 2.0682959990358692e-03  1.1323404904378458e-02 1.4080113715986748e-03 -2.2621436551244014e-04  1.0052649219244534e-02 2.8371563821941140e-03 2.4663843899282107e-03  1.7110359568400572e-02 8.0139949717384197e-04 2.1547309745766057e-03  1.2579757003910643e-02 5.4650552164992707e-03 1.2945934749396596e-03  1.3219443568168354e-02 9.3791933277662769e-03 -1.4108351053755906e-02  8.4121920143209062e-03 1.1809719625429350e-02 -1.3746661924482239e-02  1.5380551615920470e-02 1.1558004379269071e-02 -6.6123407143413790e-03  1.6292449147705994e-02 1.0568744263349944e-02 -1.3312513279588952e-02  8.2623592810575196e-03 -8.7791572477719411e-03 1.0744372055546193e-03  7.2956923648439861e-03 -9.6450381328236235e-03 -1.5138942925251729e-03  1.3835405271459296e-02 -2.8144957241104515e-03 -1.1828166285800345e-03  7.6111262032645833e-03 -2.6039076696690883e-03 2.8105450528779764e-04  1.6063939478263400e-02 -1.6226664019029281e-03 3.7307015291414562e-03  1.8759403880356660e-02 -1.8671258170938937e-03 3.3788775366630458e-03  2.1064715702859383e-02 -8.6259962326350886e-04 4.6173596769430829e-03  1.8201166914069245e-02 -2.6995115320724923e-04 5.9531434673843970e-03  5.8890099079556080e-03 7.8314065210746547e-03 5.8774681123299147e-03  1.2020695004148360e-02 5.3520141310815063e-03 7.2368691216576535e-03  1.1879872125125885e-02 3.0540851657315845e-03 4.2636919153060376e-03  9.2828135068056972e-03 3.0569205500273079e-03 5.9617906974608953e-03  1.9387262411555646e-02 -2.6632884559708394e-03 -4.9703285588661014e-03  1.9903558363679710e-02 4.4980510864865090e-04 -2.0841519525463745e-03  1.7057423531710750e-02 -1.6414328856696326e-03 -1.6467733248709262e-03  1.8981060481934795e-02 -1.3245112808305971e-03 -1.9693005820306210e-03  8.7865365555083591e-03 4.1992092709835158e-03 -1.0811391878202974e-03  8.7925373592001189e-03 4.0216778967164003e-03 5.5299460101893873e-04  8.7827028296683322e-03 2.2419681270942110e-03 -9.9582105219824316e-04  6.0212139752614082e-03 -1.8313587746177375e-04 -8.0074074831923869e-04  8.3547434997120300e-03 -1.3143821291156289e-04 -4.7588360398665309e-03  5.1514442857922005e-03 -6.5985172285213439e-05 -4.0135638674211613e-03  4.8348796022323545e-03 2.4018663634682290e-04 -2.5496088626199317e-03  4.2949211091171495e-03 8.5739375768327502e-03 6.6508506010926776e-04  3.8254889730431492e-03 8.4856189241013964e-03 -4.9631858229054384e-04  8.6832375280337121e-03 1.1810026904528472e-02 1.1592239294787034e-03  6.3870982703426310e-03 5.8367042379718912e-03 -1.8533701519070993e-03  1.4704015748688806e-02 2.7366490293168726e-03 6.2533054605804468e-03  5.0304121190783884e-03 2.3973909467919384e-03 6.8939917007580457e-03  7.3038889631861772e-03 4.1403212882527163e-04 6.5556684149262077e-03  7.9222628037411320e-03 1.8064997087631665e-03 2.7591306508074585e-03  1.4266721233415963e-02 -1.4427936886272048e-02 -3.9590301483013327e-03  1.2385471745251729e-02 -1.3050936642510327e-02 -1.6243235303150577e-03  1.7259564086806560e-02 -1.1495205149387811e-02 -3.3667232993196197e-03  1.5229412406059521e-02 -1.1998194782089560e-02 -3.3765525058163542e-03  7.3788653115492752e-03 1.2138023719955782e-03 -2.9706744338353643e-03  9.7555081446861341e-03 3.6572622347739565e-03 -1.2561610308782513e-03  7.8094536155936594e-03 2.1148183697295565e-03 -9.5937762613755692e-04  1.2645554211110108e-02 2.2372591043481748e-03 -2.3722908072496178e-03  5.8018758696009301e-03 1.0787030242029001e-02 -2.0501180538599648e-04  6.2443679119894464e-03 6.5435524946262759e-03 2.7473562016294200e-03  2.7614116524477933e-03 3.1555755333499756e-03 1.3035716444944741e-04  4.9389678476751808e-03 6.1603968255615109e-03 5.8841235339339535e-04  9.3521671836632736e-03 1.0264052572691155e-03 -2.1248008268540284e-03  1.1663328864477162e-02 2.1952490741080315e-04 -5.4246850758860963e-03  8.7888776776385309e-03 -6.7964745144944935e-04 -1.0131051867382894e-03  1.0985299628209461e-02 -2.6865029215206540e-03 -1.0013981072751028e-03  1.7928963241919699e-02 -7.7027632495117225e-03 -9.8577060580854327e-04  1.6414670433868409e-02 -9.6851115821730525e-03 -1.7933221331206490e-03  1.5280084063889891e-02 -6.6072156940699053e-03 -1.7251368008897338e-03  1.8875239487630126e-02 -6.9946852281580841e-03 2.0881065382563186e-03  2.9114152607874012e-02 1.0317282544031773e-02 1.4561814944404065e-02  4.9902938661374220e-02 1.3717426428573163e-02 7.2370305508406675e-03  4.1143066089580405e-02 4.5738190860223973e-03 1.9878050075408268e-02  3.2889823999887713e-02 1.3453631837908863e-02 1.7942823762628200e-02  1.4834784431971148e-02 8.0166147472300660e-03 -1.3226424274633336e-02  1.6905628691668104e-02 8.2255209638286055e-03 -1.3693814709448473e-02  1.3841521077484863e-02 7.3027030300315083e-03 -1.1451339425531584e-02  2.0025755669490063e-02 5.3677650189636042e-03 -8.6653601233667200e-03  1.2430254297696248e-02 -9.5616902577504639e-05 -1.5242600123213108e-03  1.1224829159996957e-02 -8.5677810873281853e-04 2.8523718414904236e-03  1.0179754697513491e-02 9.2221808278848661e-04 2.9188842867078884e-03  9.2286976607832780e-03 -7.2424468751462940e-04 1.2673832012149049e-03  1.2493154114918600e-02 -6.8229426900295771e-03 -4.4212467357326282e-04  1.2807108268754941e-02 -5.7521325624108784e-03 -4.3810213671939178e-04  1.2691731833697345e-02 -6.3550114756030568e-03 -1.1744395790952867e-03  1.3164690465574410e-02 -6.1673642887247887e-03 1.5518656612362802e-05  2.5614821377899225e-02 -3.1902495909901215e-03 2.9410902765449891e-03  1.8368725132575044e-02 -9.3548637350285447e-03 -2.7393484839533183e-03  2.0204044637268881e-02 -3.5083054260281236e-03 -5.6453327783913309e-03  2.1547988403557566e-02 -2.1043958815907581e-03 -1.1039555137044013e-03  1.9063310787076616e-02 -1.5796096502325909e-03 -1.2932741563030276e-02  2.8651707065383093e-02 8.1334313196338391e-04 -1.3857468587176737e-02  2.2734970654244058e-02 3.4837799326531687e-04 -1.2139834413948034e-02  2.3319474487201817e-02 9.1248287353236552e-04 -7.9835488328028909e-03  1.2637755848558271e-03 3.8302235037070160e-03 1.6535462797413931e-03  2.0927778891354511e-03 4.0141686940402916e-03 1.2594503548054496e-03  3.9076764201663242e-03 5.1164660793399123e-03 2.6559585583964206e-03  2.8452445109977340e-03 9.0209515369793405e-03 4.3017750780494782e-03  3.0474615584907796e-02 5.2716083374403609e-03 4.5085806619604872e-03  2.5831605353793585e-02 -1.3735024134735154e-03 4.1727025600789228e-03  2.4351466202621418e-02 2.9751120260791152e-03 7.4207699646479028e-04  2.1648361422037715e-02 1.9593118461272269e-03 4.6829520532091504e-03  1.3509548456264347e-02 -3.8019732563956499e-04 -8.1485409941891278e-03  1.6435193354224720e-02 2.7212935445781340e-03 -9.1080545693858605e-03  1.1352606117263766e-02 -6.6657672448003607e-04 -7.5774010411590953e-03  1.2722213266822964e-02 -4.4783968943944439e-03 -1.1537715569972629e-02  2.3315693341180187e-02 -2.4592865289326769e-03 -5.6090818635166429e-03  1.5336776568536065e-02 1.6039800717001732e-03 -2.4947320047186750e-03  1.7206564704079216e-02 -2.0660487376004113e-03 -4.2678563518577552e-03  1.7618374385754462e-02 2.5633668889057091e-03 -4.0685045776661880e-03  1.2470619636084427e-02 3.9509064504538761e-03 -1.1391267509590299e-02  1.5832343557775984e-02 6.4994680631323947e-03 -1.2996962528687168e-02  1.1960432466051498e-02 5.2200764033099173e-03 -1.7285062206226252e-02  1.6822839712405516e-02 6.0566126604760361e-03 -1.3578374988630510e-02  1.2383883450444768e-02 1.2405059830694386e-02 6.1940934046152195e-04  2.8266480087606742e-03 1.6108645398495550e-02 1.4053262830420357e-03  1.0955386964911436e-02 1.1437416795883735e-02 -2.3281474465532358e-03  5.6389685475153276e-03 9.5679604195757842e-03 -1.5349696832088549e-03  8.2400759585878874e-03 7.9802037934012856e-03 -1.5443251917875106e-02  2.6690422929908702e-03 8.7019412396761135e-03 -1.6974713408536336e-02  6.9154425180658844e-03 9.9805243774078595e-03 -1.6812854743122396e-02  8.0873548818128447e-03 5.6547395002798659e-03 -1.5408092123147228e-02  5.8483987527609242e-03 -1.6157149387851830e-02 -3.0802165122070804e-02  -3.7448831317532950e-03 -8.8873846411885379e-03 -2.1089220190865936e-02  2.5573837183853225e-03 -1.6663144895066054e-02 -4.2494758665049336e-02  4.5145688182683906e-03 -7.0163363763093445e-03 -2.5474566467313605e-02  2.3606128018559401e-02 2.0387806527306707e-03 1.6302423030634545e-04  1.9986692264482856e-02 4.7959160733663190e-03 6.2823268633610020e-04  2.0987253053221643e-02 3.0069311558965969e-03 -3.2911974247695227e-04  1.6597444177953898e-02 1.3586609207690294e-03 -1.6147694594337983e-04  6.6689791104937897e-03 -5.2376104812063241e-03 9.0970824301164820e-04  4.2588210820998550e-03 -1.3856975081963157e-03 4.6447571250926876e-04  8.3200744860608827e-03 -3.5836819221261472e-03 2.2216803530319337e-03  6.8073680980850603e-03 -3.2733486367970159e-03 4.4588757387525706e-03  1.0430858211296662e-02 -2.5003025726805895e-04 -9.2483241760902175e-03  1.6823963274665277e-02 1.0506801055805146e-03 -9.9249363615645115e-03  1.5290059961863499e-02 -1.5025595085838442e-03 -7.5558611084302714e-03  1.2972166495331072e-02 -5.5745012312931269e-03 -5.0462875205909809e-03  4.5340246736589812e-03 -1.5342695239161318e-04 -5.0058802460109415e-03  4.8295309880289437e-03 9.6695386841435182e-04 -4.3672953644718548e-03  3.8056919849297727e-03 1.3767051097774821e-04 -3.2424096581828415e-03  3.2249288411334627e-02 -6.4115866204812804e-03 -5.4699140549406616e-03  4.6575297977707224e-03 -1.3680303731295002e-02 -1.1034427123149251e-02  2.5798586317587913e-02 -3.9372215782726306e-03 -7.2112659929307761e-04  2.0194402865242378e-02 -8.9218515438734911e-03 1.0502164820406943e-03  2.1478172745542926e-02 5.2642899113107587e-04 5.4749570445286827e-04  2.3289088359766379e-02 4.6854422564257666e-03 3.0054077827182486e-03  2.4736166005612729e-02 2.6623290883750518e-03 1.6360110905243768e-03  2.0767873168778268e-02 1.7164149599676638e-03 -1.4855154317120170e-04  2.5673435972207144e-03 8.2757197209857279e-04 -1.5080411843675364e-02  1.1204995028663024e-02 2.7208248208611207e-04 -2.1180188954919129e-02  1.1185345312232335e-02 2.3220987988394306e-04 -1.3557161546676338e-02  8.7534297766212032e-03 1.1387957994802033e-03 -1.3487613300257344e-02  3.0080911836443434e-02 7.3326384962425486e-03 4.8190566060456142e-03  2.0952868034084728e-02 -3.0177089824800253e-03 -2.4531050094805098e-03  2.0775968494655083e-02 -2.6391706022737914e-04 -2.1663756929302122e-04  1.8119814688772291e-02 2.9692581444833431e-03 3.6314581310310191e-03  4.6925773432441847e-03 1.2050210118141498e-03 1.7930169626905366e-03  4.9656385803278176e-03 2.0821597980392420e-03 3.8988252180593395e-03  9.7410577666926408e-03 2.3046560207098986e-03 1.7847061854965296e-03  6.9260408643158676e-03 1.2301344369558052e-03 -9.6794512901007116e-05  6.5703409913518973e-03 1.5724970956161463e-03 5.5058348025266764e-03  9.6592193528366142e-03 4.5009275711639235e-03 7.4820675344241857e-03  8.5819469999627637e-03 1.5555877353364786e-02 1.7892126179314496e-03  1.0640711381739550e-02 1.4498541959808988e-02 6.3996397851642805e-04  5.8253989622653454e-03 9.9688946970572026e-03 1.0338846686640418e-03  9.4448368239257764e-03 8.5761110591025154e-03 2.1674536514847306e-05  8.0067311742683077e-03 8.3684601194419089e-03 -5.9613940686567670e-03  6.8246143812870199e-03 1.6612301481411795e-02 -2.1497021007307925e-04  7.7603059369488825e-03 5.6561628331260900e-03 -2.2082403844375484e-03  1.1679204520161184e-02 9.8476711397791090e-03 -3.5096131299578938e-03  7.9569299134458746e-02 -3.4972427112928299e-02 -3.9109021043572684e-03  3.4004367154950643e-02 -1.6585411192631069e-02 -2.3012900439874726e-02  5.2705666918694952e-02 -5.9237035615196621e-03 -3.4476259063299985e-02  4.1808534673899798e-02 -2.0604855053479042e-02 -4.8091445808562680e-03  1.3402426909388735e-02 -1.3424728512053083e-02 -1.5179940979485751e-02  1.3286087453143396e-02 -8.0835903639674689e-03 -1.3972267164709755e-02  1.0888604622654651e-02 -7.0023669093978395e-03 -8.8971081395408588e-03  1.4254609079362143e-02 -2.0750708508422235e-03 -1.3102135094032743e-02  2.6795588426236080e-02 2.7693088918185767e-03 -2.1370073524117034e-02  2.8963849586662628e-02 3.4128126144331284e-03 -1.7568901884475227e-02  2.1292235325299565e-02 5.2429858832342777e-03 -1.8455868656083105e-02  2.3608300739723833e-02 7.1605025103037021e-03 -1.1242498643436499e-02  9.0063106229097429e-03 3.1646116644620483e-04 5.4985032256649235e-03  9.6571092712832464e-03 1.3076955782941055e-04 4.9420024858119168e-03  9.1259818986297592e-03 9.2574249685859172e-05 4.5393708124832205e-03  9.2106008674615707e-03 1.0487633629989343e-04 4.7497158821455413e-03  1.0145077002487604e-02 -9.0964887953728594e-03 7.0092058021567040e-03  1.1130655365896393e-02 -5.3397547544332923e-03 1.0360812016371785e-02  1.3150496229741656e-02 -6.8500162906586018e-03 8.7926127265175163e-03  1.2664788292171922e-02 -5.5412106967272692e-03 7.2562622673213676e-03  7.8615511434817764e-03 -5.5871354142127761e-03 -2.0031498390843420e-03  7.7493212769876941e-03 -2.3817978628493186e-03 -9.0427229494301377e-05  9.1367314814574038e-03 -1.1949675494229311e-04 3.8858752370630491e-04  1.3090973671495761e-02 7.9900154559696974e-03 -1.1616781297169407e-02  1.6174563113760341e-02 8.3529629526389905e-03 -1.5798927956915818e-02  1.3446852757084694e-02 9.9523020753252284e-03 -1.4527508956876553e-02  1.3441540864543728e-02 7.1697851476604018e-03 -1.1795259075448919e-02  2.0376115799206607e-02 1.0767479706432260e-02 8.0881527023201651e-03  2.2036415200475772e-02 1.2452003396408664e-02 7.2979581036715716e-03  2.3278579416933561e-02 1.0458520869114907e-02 7.1217488890605108e-03  1.8804015112089980e-02 1.2060252167022114e-02 6.3482226570834317e-03  3.5671130389953308e-02 3.2011857652061385e-03 1.3116303834697756e-02  2.3733229957810586e-02 1.3973343047822872e-02 1.8327542221720838e-02  3.2333178785251805e-02 8.0275995017514267e-03 1.5980307356476896e-02  2.2972112438459237e-02 9.2414667988216202e-03 1.0662357433459042e-02  1.7628473409870213e-02 1.0132609837990587e-03 4.2376930660157344e-03  2.4720825158947461e-02 3.9586356900677268e-04 1.1725196984953207e-04  1.7332313126578992e-02 5.7457110079427972e-03 2.1235739778844367e-03  1.9413747788312466e-02 6.9631466824226504e-03 2.9398044467803196e-03  1.3274048712460299e-03 1.3154332048940899e-03 -2.1805084311614345e-03  6.5663065374265979e-04 2.0123302198012034e-03 -2.9994326877675467e-03  3.3830367840340676e-03 2.6326989425778775e-03 -3.5227107646702001e-03  2.5580876403480061e-03 1.3889965168328508e-03 -1.8258153559946057e-03  8.1741356512554479e-03 -2.6616200635106477e-03 -5.6820103610564967e-03  1.0498194328821268e-02 -5.0342457223191252e-03 -8.0203820764351650e-03  9.0097296171270224e-03 -1.5736476530429640e-03 -5.9589670296955680e-03  1.0632333639123514e-02 -2.7748933041424621e-03 -6.4329238626693874e-03  2.6199142560666969e-02 5.7616351999310823e-03 4.8849648529765248e-03  3.5604602295698493e-02 3.7850483286298938e-03 -4.4233090427950022e-03  3.7780263802920877e-02 3.4985353524749781e-03 4.8497521229682247e-03  3.1821512576737480e-02 3.5664428521009098e-03 -2.5248180172598362e-03  2.5335251909494771e-02 -1.8618583240008349e-03 -1.8526132287849020e-02  2.0982000197051900e-02 -4.7644733491402531e-05 -1.7639353615346080e-02  2.6805053880856924e-02 -7.5185007217402238e-04 -1.9250707749841278e-02  2.0702288726487010e-03 6.6091965794328378e-04 1.5442365608655567e-03  1.1830304211059065e-03 3.6074023230413851e-04 2.4550934060841882e-03  1.6772775914083815e-03 -1.0506016853015809e-04 1.7675581700699709e-03  6.4535381644106481e-04 -3.5330971737675853e-04 3.3974786711708820e-04  1.1545771670333126e-02 1.5606272070858255e-03 -7.4236862949473006e-03  1.4144837402765547e-02 3.7396038510591578e-03 -8.8996387481300870e-03  9.1809184131733512e-03 4.4978815269443280e-03 -9.5778316057626312e-03  9.3997217026403294e-03 2.2937952565373464e-03 -6.0067888865660999e-03  1.1089127223767051e-02 8.4324022409296509e-04 1.0598870755422632e-03  7.0167726078969898e-03 8.3519916990646228e-04 -2.6052756586612360e-03  1.3513230926393104e