<?xml version="1.0"?>
<VTKFile type="UnstructuredGrid"  version="0.1"  >
<UnstructuredGrid>
<Piece  NumberOfPoints="2061" NumberOfCells="9579">
<Points>
<DataArray  type="Float64"  NumberOfComponents="3"  format="ascii">4 1 2.5  4 1.25 2.5  4 1.25 2.25  3.75 1.25 2.25  4 1.5 2.5  3.5 1 2.5  3.75 1.25 2.5  3.75 1 2.5  3.5 1.25 2.5  3.5 1.5 2.5  3.75 1.5 2.5  3.75 1.5 2.25  4.25 1.25 2.5  4.25 1.25 2.25  3.5 1.75 2.5  3.5 1.75 2.25  3.25 1.75 2.25  3.5 2 2.5  3 1.5 2.5  3.25 1.75 2.5  3.25 1.5 2.5  3 1.75 2.5  3 2 2.5  3.25 2 2.5  4 1.75 2.5  4 1.75 2.25  3.75 1.75 2.25  4 2 2.5  3.75 1.75 2.5  3.75 2 2.5  3.75 2 2.25  4.25 1.75 2.5  4.25 1.5 2.5  4.25 1.75 2.25  4.5 1.5 2.5  4.5 1.75 2.5  4.5 2 2.5  4.25 2 2.5  3.75 2.25 2.5  3.75 2.25 2.25  3.5 2.25 2.5  3.5 2.5 2.5  3.5 0.5 2.5  3.5 0.5 2.75  3.5 0.25 2.75  3.25 0.25 2.75  3.5 0.5 3  3.5 0 2.5  3.5 0 2.75  3.25 0 2.75  3.5 0 3  3.5 0.25 3  3 0 3  3.25 0.25 3  3.25 0 3  3 0 2.75  3 0.5 2.5  3.25 0.5 2.75  3.25 0.5 2.5  3 0.25 3  3 0.25 2.75  3 0.5 3  3.25 0.5 3  3 0.5 2.75  4 0.5 2.5  4 0.5 2.75  4 0.25 2.75  3.75 0.25 2.75  4 0.5 3  4 0 3  4 0.25 3  3.75 0 2.75  3.75 0.25 3  3.75 0 3  3.75 0.5 2.75  3.75 0.5 2.5  3.75 0.5 3  4.5 0.5 2.5  4.5 0.5 2.75  4.5 0.25 2.75  4.25 0.25 2.75  4.5 0.5 3  4.5 0 3  4.5 0.25 3  4.25 0.25 3  4.25 0 3  4.25 0.5 2.75  4.25 0.5 3  5 0 2.5  5 0.25 2.75  5 0 2.75  4.75 0.25 2.75  4.75 0 2.75  5 0 3  5 0.25 3  5 0.5 3  4.75 0.25 3  4.75 0 3  4.75 0.5 3  4.75 0.5 2.75  3.5 1 2.75  3.5 0.75 2.75  3.25 0.75 2.75  3.5 1 3  3.5 0.75 3  3.25 0.75 3  3.25 1 2.75  3 0.75 2.75  3 0.75 3  3 1 3  3.25 1 3  3 0.75 2.5  3 1 2.5  3 1 2.75  4 0.75 2.75  4 0.75 2.5  3.75 0.75 2.75  4 1 2.75  4 1 3  4 0.75 3  3.75 0.75 3  3.75 1 2.75  3.75 1 3  4.5 1 2.5  4.5 1 2.75  4.5 0.75 2.75  4.25 0.75 2.75  4.5 1 3  4.5 0.75 3  4.25 0.75 3  4.25 1 2.75  4.25 1 2.5  4.25 1 3  4.75 0.75 2.75  4.75 0.75 3  5 0.75 3  5 1 3  4.75 1 3  4.75 1 2.75  3.5 1.25 2.75  3.25 1.25 2.75  3.5 1.5 2.75  3.5 1.5 3  3.5 1.25 3  3.25 1.25 3  3.25 1.5 2.75  3 1.25 2.75  3 1.25 3  3 1.5 3  3.25 1.5 3  3 1.25 2.5  3 1.5 2.75  3.75 1.25 2.75  4 1.25 2.75  4 1.5 2.75  4 1.5 3  4 1.25 3  3.75 1.25 3  3.75 1.5 2.75  3.75 1.5 3  4.5 1.5 2.75  4.5 1.25 2.75  4.25 1.25 2.75  4.5 1.5 3  4.5 1.25 3  4.25 1.25 3  4.25 1.5 2.75  4.25 1.5 3  4.75 1.25 2.75  4.75 1.25 3  5 1.25 3  5 1.5 3  4.75 1.5 3  4.75 1.5 2.75  3.25 1.75 2.75  3.5 1.75 2.75  3.5 2 2.75  3.5 2 3  3.5 1.75 3  3.25 1.75 3  3.25 2 2.75  3 1.75 2.75  3 1.75 3  3 2 3  3.25 2 3  3 2 2.75  3.75 1.75 2.75  4 1.75 2.75  4 2 2.75  4 2 3  4 1.75 3  3.75 1.75 3  3.75 2 2.75  3.75 2 3  4.25 1.75 2.75  4.5 1.75 2.75  4.5 2 2.75  4.5 2 3  4.5 1.75 3  4.25 1.75 3  4.25 2 2.75  4.25 2 3  5 2 2.5  5 2 2.75  5 1.75 2.75  4.75 1.75 2.75  5 2 3  5 1.75 3  4.75 1.75 3  4.75 2 2.75  4.75 2 2.5  4.75 2 3  3.5 2.25 2.75  3.25 2.25 2.75  3.5 2.5 2.75  3.5 2.5 3  3.5 2.25 3  3.25 2.25 3  3.75 2.25 2.75  4 2.25 2.75  4 2.25 3  4 2.5 3  3.75 2.25 3  3.75 2.5 3  3.75 2.5 2.75  4.25 2.25 2.75  4.5 2.25 2.75  4.5 2.25 3  4.25 2.25 3  4.75 2.25 2.75  4.75 2.25 2.5  5 2.25 2.75  5 2.25 2.5  5 2.5 2.5  4.75 2.25 3  3.25 0.25 3.25  3.5 0.25 3.25  3.5 0.5 3.25  3.5 0.5 3.5  3.25 0 3.25  3.5 0 3.25  3.5 0 3.5  3.5 0.25 3.5  3 0 3.25  3 0 3.5  3.25 0.25 3.5  3.25 0 3.5  3.25 0.5 3.25  3 0.25 3.25  3 0.25 3.5  3 0.5 3.5  3.25 0.5 3.5  3 0.5 3.25  3.75 0.25 3.25  4 0.25 3.25  4 0.5 3.25  4 0.5 3.5  3.75 0 3.25  4 0 3.25  4 0 3.5  4 0.25 3.5  3.75 0.25 3.5  3.75 0 3.5  3.75 0.5 3.25  3.75 0.5 3.5  4.25 0.25 3.25  4.5 0.25 3.25  4.5 0.5 3.25  4.5 0.5 3.5  4.25 0 3.25  4.5 0 3.25  4.5 0 3.5  4.5 0.25 3.5  4.25 0.25 3.5  4.25 0 3.5  4.25 0.5 3.25  4.25 0.5 3.5  4.75 0.25 3.25  5 0.25 3.25  5 0.5 3.25  5 0.5 3.5  4.75 0 3.25  5 0 3.25  5 0 3.5  5 0.25 3.5  4.75 0.25 3.5  4.75 0 3.5  4.75 0.5 3.25  4.75 0.5 3.5  3.25 0.75 3.25  3.5 0.75 3.25  3.5 1 3.25  3.5 1 3.5  3.5 0.75 3.5  3.25 0.75 3.5  3.25 1 3.25  3 0.75 3.25  3 0.75 3.5  3 1 3.5  3.25 1 3.5  3 1 3.25  3.75 0.75 3.25  4 0.75 3.25  4 1 3.25  4 1 3.5  4 0.75 3.5  3.75 0.75 3.5  3.75 1 3.25  3.75 1 3.5  4.25 0.75 3.25  4.5 0.75 3.25  4.5 1 3.25  4.5 1 3.5  4.5 0.75 3.5  4.25 0.75 3.5  4.25 1 3.25  4.25 1 3.5  4.75 0.75 3.25  5 0.75 3.25  5 1 3.25  5 1 3.5  5 0.75 3.5  4.75 0.75 3.5  4.75 1 3.25  4.75 1 3.5  3.25 1.25 3.25  3.5 1.25 3.25  3.5 1.5 3.25  3.5 1.5 3.5  3.5 1.25 3.5  3.25 1.25 3.5  3.25 1.5 3.25  3 1.25 3.25  3 1.25 3.5  3 1.5 3.5  3.25 1.5 3.5  3 1.5 3.25  3.75 1.25 3.25  4 1.25 3.25  4 1.5 3.25  4 1.5 3.5  4 1.25 3.5  3.75 1.25 3.5  3.75 1.5 3.25  3.75 1.5 3.5  4.25 1.25 3.25  4.5 1.25 3.25  4.5 1.5 3.25  4.5 1.5 3.5  4.5 1.25 3.5  4.25 1.25 3.5  4.25 1.5 3.25  4.25 1.5 3.5  4.75 1.25 3.25  5 1.25 3.25  5 1.5 3.25  5 1.5 3.5  5 1.25 3.5  4.75 1.25 3.5  4.75 1.5 3.25  4.75 1.5 3.5  3.25 1.75 3.25  3.5 1.75 3.25  3.5 2 3.25  3.5 2 3.5  3.5 1.75 3.5  3.25 1.75 3.5  3.25 2 3.25  3 1.75 3.25  3 1.75 3.5  3 2 3.5  3.25 2 3.5  3 2 3.25  3.75 1.75 3.25  4 1.75 3.25  4 2 3.25  4 2 3.5  4 1.75 3.5  3.75 1.75 3.5  3.75 2 3.25  3.75 2 3.5  4.25 1.75 3.25  4.5 1.75 3.25  4.5 2 3.25  4.5 2 3.5  4.5 1.75 3.5  4.25 1.75 3.5  4.25 2 3.25  4.25 2 3.5  4.75 1.75 3.25  5 1.75 3.25  5 2 3.25  5 2 3.5  5 1.75 3.5  4.75 1.75 3.5  4.75 2 3.25  4.75 2 3.5  3.25 2.25 3.25  3.5 2.25 3.25  3.5 2.5 3.25  3.5 2.5 3.5  3.5 2.25 3.5  3.25 2.25 3.5  3 2.25 3.25  3.75 2.25 3.25  4 2.25 3.25  4 2.5 3.25  4 2.5 3.5  4 2.25 3.5  3.75 2.25 3.5  3.75 2.5 3.25  3.75 2.5 3.5  4.25 2.25 3.25  4.5 2.25 3.25  4.5 2.25 3.5  4.5 2.5 3.5  4.25 2.25 3.5  4.25 2.5 3.5  4.75 2.25 3.25  5 2.25 3.25  5 2.25 3.5  5 2.5 3.5  4.75 2.25 3.5  4.75 2.5 3.5  3.25 0.25 3.75  3.5 0.25 3.75  3.5 0.5 3.75  3.5 0.5 4  3.25 0 3.75  3.5 0 3.75  3.5 0 4  3.5 0.25 4  3 0 3.75  3 0 4  3.25 0.25 4  3.25 0 4  3.25 0.5 3.75  3 0.25 3.75  3 0.25 4  3 0.5 4  3.25 0.5 4  3 0.5 3.75  3.75 0.25 3.75  4 0.25 3.75  4 0.5 3.75  4 0.5 4  3.75 0 3.75  4 0 3.75  4 0 4  4 0.25 4  3.75 0.25 4  3.75 0 4  3.75 0.5 3.75  3.75 0.5 4  4.25 0.25 3.75  4.5 0.25 3.75  4.5 0.5 3.75  4.5 0.5 4  4.25 0 3.75  4.5 0 3.75  4.5 0 4  4.5 0.25 4  4.25 0.25 4  4.25 0 4  4.25 0.5 3.75  4.25 0.5 4  4.75 0.25 3.75  5 0.25 3.75  5 0.5 3.75  5 0.5 4  4.75 0 3.75  5 0 3.75  5 0 4  5 0.25 4  4.75 0.25 4  4.75 0 4  4.75 0.5 3.75  4.75 0.5 4  3.25 0.75 3.75  3.5 0.75 3.75  3.5 1 3.75  3.5 1 4  3.5 0.75 4  3.25 0.75 4  3.25 1 3.75  3 0.75 3.75  3 0.75 4  3 1 4  3.25 1 4  3 1 3.75  3.75 0.75 3.75  4 0.75 3.75  4 1 3.75  4 1 4  4 0.75 4  3.75 0.75 4  3.75 1 3.75  3.75 1 4  4.25 0.75 3.75  4.5 0.75 3.75  4.5 1 3.75  4.5 1 4  4.5 0.75 4  4.25 0.75 4  4.25 1 3.75  4.25 1 4  4.75 0.75 3.75  5 0.75 3.75  5 1 3.75  5 1 4  5 0.75 4  4.75 0.75 4  4.75 1 3.75  4.75 1 4  3.25 1.25 3.75  3.5 1.25 3.75  3.5 1.5 3.75  3.5 1.5 4  3.5 1.25 4  3.25 1.25 4  3.25 1.5 3.75  3 1.25 3.75  3 1.25 4  3 1.5 4  3.25 1.5 4  3 1.5 3.75  3.75 1.25 3.75  4 1.25 3.75  4 1.5 3.75  4 1.5 4  4 1.25 4  3.75 1.25 4  3.75 1.5 3.75  3.75 1.5 4  4.25 1.25 3.75  4.5 1.25 3.75  4.5 1.5 3.75  4.5 1.5 4  4.5 1.25 4  4.25 1.25 4  4.25 1.5 3.75  4.25 1.5 4  4.75 1.25 3.75  5 1.25 3.75  5 1.5 3.75  5 1.5 4  5 1.25 4  4.75 1.25 4  4.75 1.5 3.75  4.75 1.5 4  3.25 1.75 3.75  3.5 1.75 3.75  3.5 2 3.75  3.5 2 4  3.5 1.75 4  3.25 1.75 4  3.25 2 3.75  3 1.75 3.75  3 1.75 4  3 2 4  3.25 2 4  3 2 3.75  3.75 1.75 3.75  4 1.75 3.75  4 2 3.75  4 2 4  4 1.75 4  3.75 1.75 4  3.75 2 3.75  3.75 2 4  4.25 1.75 3.75  4.5 1.75 3.75  4.5 2 3.75  4.5 2 4  4.5 1.75 4  4.25 1.75 4  4.25 2 3.75  4.25 2 4  4.75 1.75 3.75  5 1.75 3.75  5 2 3.75  5 2 4  5 1.75 4  4.75 1.75 4  4.75 2 3.75  4.75 2 4  3.25 2.25 3.75  3.75 2.25 3.75  4 2.25 3.75  3.75 2.25 4  4.25 2.25 3.75  4.5 2.25 3.75  4.25 2.25 4  4.75 2.25 3.75  5 2.25 3.75  5 2.5 3.75  5 2.5 4  5 2.25 4  4.75 2.25 4  3.25 0.25 4.25  3.5 0.25 4.25  3.5 0.5 4.25  3.5 0.5 4.5  3.25 0 4.25  3.5 0 4.25  3.5 0 4.5  3.5 0.25 4.5  3 0 4.25  3 0 4.5  3.25 0.25 4.5  3.25 0 4.5  3.25 0.5 4.25  3 0.25 4.25  3 0.25 4.5  3 0.5 4.5  3.25 0.5 4.5  3 0.5 4.25  3.75 0.25 4.25  4 0.25 4.25  4 0.5 4.25  4 0.5 4.5  3.75 0 4.25  4 0 4.25  4 0 4.5  4 0.25 4.5  3.75 0.25 4.5  3.75 0 4.5  3.75 0.5 4.25  3.75 0.5 4.5  4.25 0.25 4.25  4.5 0.25 4.25  4.5 0.5 4.25  4.5 0.5 4.5  4.25 0 4.25  4.5 0 4.25  4.5 0 4.5  4.5 0.25 4.5  4.25 0.25 4.5  4.25 0 4.5  4.25 0.5 4.25  4.25 0.5 4.5  4.75 0.25 4.25  5 0.25 4.25  5 0.5 4.25  5 0.5 4.5  4.75 0 4.25  5 0 4.25  5 0 4.5  5 0.25 4.5  4.75 0.25 4.5  4.75 0 4.5  4.75 0.5 4.25  4.75 0.5 4.5  3.25 0.75 4.25  3.5 0.75 4.25  3.5 1 4.25  3.5 1 4.5  3.5 0.75 4.5  3.25 0.75 4.5  3.25 1 4.25  3 0.75 4.25  3 0.75 4.5  3 1 4.5  3.25 1 4.5  3 1 4.25  3.75 0.75 4.25  4 0.75 4.25  4 1 4.25  4 1 4.5  4 0.75 4.5  3.75 0.75 4.5  3.75 1 4.25  3.75 1 4.5  4.25 0.75 4.25  4.5 0.75 4.25  4.5 1 4.25  4.5 1 4.5  4.5 0.75 4.5  4.25 0.75 4.5  4.25 1 4.25  4.25 1 4.5  4.75 0.75 4.25  5 0.75 4.25  5 1 4.25  5 1 4.5  5 0.75 4.5  4.75 0.75 4.5  4.75 1 4.25  4.75 1 4.5  3.25 1.25 4.25  3.5 1.25 4.25  3.5 1.5 4.25  3.5 1.5 4.5  3.5 1.25 4.5  3.25 1.25 4.5  3.25 1.5 4.25  3 1.25 4.25  3 1.25 4.5  3 1.5 4.5  3.25 1.5 4.5  3 1.5 4.25  3.75 1.25 4.25  4 1.25 4.25  4 1.5 4.25  4 1.5 4.5  4 1.25 4.5  3.75 1.25 4.5  3.75 1.5 4.25  3.75 1.5 4.5  4.25 1.25 4.25  4.5 1.25 4.25  4.5 1.5 4.25  4.5 1.5 4.5  4.5 1.25 4.5  4.25 1.25 4.5  4.25 1.5 4.25  4.25 1.5 4.5  4.75 1.25 4.25  5 1.25 4.25  5 1.5 4.25  5 1.5 4.5  5 1.25 4.5  4.75 1.25 4.5  4.75 1.5 4.25  4.75 1.5 4.5  3.25 1.75 4.25  3.5 1.75 4.25  3.5 2 4.25  3.5 2 4.5  3.5 1.75 4.5  3.25 1.75 4.5  3.25 2 4.25  3 1.75 4.25  3 1.75 4.5  3 2 4.5  3.25 2 4.5  3 2 4.25  3.75 1.75 4.25  4 1.75 4.25  4 2 4.25  4 2 4.5  4 1.75 4.5  3.75 1.75 4.5  3.75 2 4.25  3.75 2 4.5  4.25 1.75 4.25  4.5 1.75 4.25  4.5 2 4.25  4.5 2 4.5  4.5 1.75 4.5  4.25 1.75 4.5  4.25 2 4.25  4.25 2 4.5  4.75 1.75 4.25  5 1.75 4.25  5 2 4.25  5 2 4.5  5 1.75 4.5  4.75 1.75 4.5  4.75 2 4.25  4.75 2 4.5  3.25 2.25 4.25  3.5 2.25 4.25  3.25 2.25 4.5  3 2.25 4.25  3 2.25 4.5  3 2.5 4.5  3.75 2.25 4.25  4 2.25 4.25  4.25 2.25 4.25  4.5 2.25 4.25
[...]
<PointData  Scalars="c_HbCO2"> 
<DataArray  type="Float64"  Name="c_HbCO2"  format="ascii">-1.8730561569736208e-27  5.1109587231286009e-27  2.5758448671080841e-26  2.6151763607998930e-25  -1.2065440245417154e-26  -5.4582418578254466e-25  2.2464795096332627e-26  -6.4838819251212361e-26  -1.0988937380151892e-24  9.6077713542118597e-25  -8.0823325439574066e-26  -3.1651651395116644e-25  4.4883497508173349e-28  6.7429419589997164e-27  7.5943026599771442e-25  1.2963312472929491e-24  2.4472986144559756e-23  4.0076485943911387e-24  -5.9236069764721199e-23  1.9328356089051492e-23  -7.4000624983511923e-24  -3.2391857572010230e-23  -4.3923281182430780e-22  1.7030275277939532e-23  6.0371629112432452e-27  -5.1106366275109391e-27  -1.7597032433146782e-25  -8.7526733833881669e-27  1.5835054993844035e-25  1.9652587464187232e-25  4.1757823294744476e-26  -2.0648275029695450e-27  -1.9822998013118048e-27  4.3048639583021208e-27  -2.8737694029635113e-28  -1.3225619997781293e-28  8.4902023200189358e-28  -8.7727052382935316e-28  1.3379744415644051e-25  9.7547120615432242e-26  -2.4864564694357071e-24  -1.1412299492957064e-24  1.4532254667051092e-25  2.7155852690961791e-26  -2.4532000291817231e-27  6.7711771111288074e-26  1.8436353301128162e-25  -1.2593570379664936e-26  -1.7827735248651826e-27  4.7293493588778750e-26  -9.5964904144793137e-27  3.4999305910758116e-27  -1.5614918885321324e-25  8.1667447310534974e-26  -9.0611897711287258e-27  -8.7446653856296930e-26  -3.9558281478241226e-24  1.4667613040525079e-25  -2.8370256148841141e-25  -2.5412125818785894e-26  8.0508210756182491e-26  2.5947845042874522e-24  -3.9206530101385965e-25  -4.4306831963585352e-26  -4.4072694916684533e-27  -2.1514113242967846e-27  6.9386626631944999e-29  4.0839404734817762e-27  -5.9449713484599757e-27  5.4720961025508875e-28  -3.4038364507344902e-28  -6.8125202914089615e-28  4.2487833458810993e-27  -8.9564367919110228e-28  -1.0924091460967886e-26  -1.7838459468842312e-26  -6.7959224154968602e-27  -1.1698529810706499e-29  -4.4491581242816281e-30  -1.1502020025519790e-29  1.1109325750300855e-28  -1.0091932243967914e-28  -2.1540090446778156e-29  -1.9370278352075093e-29  1.4895892815603843e-28  3.0893381102233261e-31  2.4284156357677759e-28  -1.9039550824159103e-29  3.1700296960274183e-31  -3.5223832700005484e-31  -1.2765647741013545e-31  1.2823624691148366e-30  3.4795012332836784e-31  -1.0392334942138085e-30  -2.9983714170813834e-31  3.9531508833598969e-30  3.8400246332098057e-30  -3.4077926922890705e-32  4.7813406673614744e-31  -4.4896909010584375e-30  3.9829052721278511e-25  5.5343186889097152e-26  1.9077476416969082e-24  2.9176936053564850e-24  5.5158239784293645e-25  -3.6666865363059089e-24  -1.4900810457155922e-24  6.2121806047165266e-24  1.1187459721580242e-23  8.9317250015839143e-23  9.9005614382721596e-25  2.4706358102456331e-24  2.8440856539625545e-23  3.0020365911734328e-23  7.5642262715066777e-28  -6.6284338633507169e-27  -7.6342772275045887e-26  3.2346967969506312e-26  4.8469963678390157e-26  -4.6290716768556148e-27  1.0661442069024537e-26  -1.5502246622153508e-25  5.8182811591125260e-26  -2.7384954208567825e-28  -4.1746720481115154e-28  1.1630048825390944e-28  1.0980609866281405e-27  -8.6204467838059387e-28  -1.6558413801457097e-28  2.2912339292690060e-27  2.0296936142118760e-27  4.0836924226967341e-28  9.9657057335849502e-28  -3.2094951217622274e-29  2.3030353154451217e-29  5.1338414693720001e-30  2.3856232037528932e-29  2.7137406633786411e-29  4.1315039505753960e-29  -2.1816583382809211e-25  1.3576348753791741e-23  2.7492598016268709e-24  1.0890286732127331e-23  3.2649670578464831e-24  -1.7741000271296825e-23  -2.5500106745775407e-23  7.4627146431455712e-23  8.6954959816562346e-23  4.6337918724995299e-22  -5.4187981462022098e-24  -8.6674802532645011e-23  1.8594459644373420e-22  -3.3647910646278160e-25  -6.0738361102711256e-27  9.4797976911430215e-26  2.5615494597172746e-25  1.1621831152564189e-25  -7.4505384849798214e-25  -4.6573949127918691e-25  -1.5828951998396295e-25  -7.1431500829737797e-28  -2.3853564653567831e-28  8.1189003198410896e-28  -6.6016721153503868e-28  2.5876791332856884e-29  -2.0530695140074094e-27  6.0924494107195855e-27  1.1747409001774307e-26  6.7940667772326559e-29  7.2876725135974296e-29  1.1260698300329361e-29  2.1233907965077709e-29  -2.7405245866146331e-29  -6.3029801105838978e-29  -2.6502665090580034e-23  9.7499667061043192e-25  -1.2831401037937062e-24  2.0746755623106039e-24  4.6899438902522722e-24  -3.3389944575246017e-23  9.3906907996662723e-24  2.1846720797990199e-22  2.4771352811296547e-22  -2.7524135338144384e-22  -1.6755937819324900e-23  1.1526484542226018e-22  -7.7025732955220450e-25  1.5118746561508378e-27  1.6833536205350206e-26  8.3987919651368292e-26  1.4632869065484352e-25  -8.3039642539605712e-25  6.2131984026300002e-26  -1.2069531694531842e-25  -2.2069555945409526e-26  -1.1897034557502602e-27  1.1987877745468416e-27  -2.0716284800256999e-28  9.4562854820852129e-29  -1.8129583224480380e-26  -7.1399143327297770e-27  -5.1484090830270562e-27  9.8833761297880407e-32  -9.3995479427880807e-30  1.1795642247422430e-29  7.2329541731023134e-29  1.4401633719906765e-29  -4.1520714010711150e-30  1.7462490469755661e-29  -8.5614859740699667e-31  -4.4763076333811087e-29  -2.6682017996976299e-30  -1.8550160847554685e-24  -3.2526986783330908e-23  5.3988690570155954e-25  -1.9747063657046081e-25  4.4674114394582268e-25  -1.3803383061599097e-23  1.3168527142135288e-25  1.1760282272153368e-26  1.9880050004050628e-26  -4.4744571457981445e-27  -1.0485232070047351e-25  -1.4564475942320412e-26  2.1578608882723012e-26  -3.3468502815429995e-28  5.6187363245864971e-29  -2.9211166358058865e-28  4.7776724197223921e-27  1.7148515307285399e-29  -3.4912435208177321e-29  2.1972772042658398e-30  2.7109812841299490e-30  -3.9155840697038211e-30  -2.4069666873502532e-29  -6.5985645032429503e-26  1.8596439489878089e-26  1.5268969510099096e-25  1.8729193527699802e-26  -3.6677746792878781e-27  -6.8386047095298383e-27  -1.1015990563395908e-26  -2.4717716457461576e-27  -6.1608662848899855e-26  -3.7905149027521939e-26  6.5105560922930991e-26  -2.1752693758959775e-26  -3.6370689476535047e-25  2.5843642189136969e-25  1.0200370482472679e-25  2.2933187490564195e-24  -3.7329604558309410e-25  2.7135811560964483e-24  7.4994741902846663e-27  3.0549251549984050e-28  -3.7281040797728473e-27  -3.8627010920349135e-27  4.1024656798889522e-28  -4.2475689950825150e-28  -6.1206768279442304e-28  -4.7592455324576474e-28  3.8549947513941082e-27  -9.2846146021787450e-28  -9.1921754809365700e-27  -2.4120203447317762e-27  2.8675089553591645e-28  -1.2305510669003564e-30  -5.9923573492826433e-29  -7.4705338372628375e-29  3.2583114071875006e-29  -1.2900386337018626e-29  -1.9346449328659151e-29  -1.5395278870168334e-29  1.0697426952130322e-28  -2.2349238006056859e-29  4.4703575760452238e-28  -8.1001587820389691e-29  5.4125801314693284e-30  -4.7944081575297328e-33  -1.6018735462705786e-30  -2.2481632017754907e-30  1.3864118373703700e-30  -4.0221333857298639e-31  -9.3492512492030929e-31  -4.3180291086255631e-31  2.6175825670234170e-30  1.6509855710030703e-31  6.8750333216516593e-30  -2.6174552879522249e-31  -3.3157992216807194e-24  4.3774925345987064e-25  1.6627329732654380e-24  1.5744288877364863e-24  1.2395153601985796e-25  -1.2113322154465299e-24  -8.1156673503329534e-24  -8.1746906831884769e-25  1.0157680885401744e-24  3.8998157363907106e-23  -2.1265586376487053e-24  5.0856734470571634e-23  -5.6222584218989090e-26  -9.3067129887260821e-28  5.7625570286231046e-26  2.6006809727113401e-27  5.5332908472071565e-28  -7.2559036458208854e-26  -1.5581022363859940e-25  -1.1661495323439203e-25  2.5768311614607494e-27  -5.4242941819859646e-30  -4.3296691891795291e-28  -4.6206206544291109e-28  -1.2347042655095497e-28  1.1694314326823704e-27  -1.7977209074354133e-27  4.9689076893298417e-28  3.0114683815801005e-29  -3.3741537438764818e-31  -3.4576886287832600e-30  -7.0762511263182373e-30  -2.8859866447132319e-30  1.4883976535322998e-29  4.3133228734379753e-29  3.3626799053514657e-30  -2.4002438731284918e-23  6.6510177369595619e-25  4.5277252589911863e-24  3.6718612879125228e-24  1.6839986413361184e-24  -7.7798221219197972e-24  -2.6203241702405113e-23  -5.9480258444037098e-24  3.7893485996568489e-23  1.1032592196765856e-22  -5.5024147281167477e-24  1.5406632828394948e-22  -9.2576620062746393e-25  7.4440768165824390e-26  2.6879479031800847e-26  -2.7271449161058114e-26  9.4512214224562109e-27  -3.0480800675711671e-25  -9.0320921015861103e-25  -3.2545734052508860e-25  3.1853541873582039e-28  -1.2271331459655676e-28  -7.7685501510986139e-28  -7.7597476215364002e-28  -4.5492830021030701e-28  3.2337990084442474e-28  6.3022137063734429e-27  1.1059790239502280e-27  9.8725563175552226e-29  4.0250057152824630e-30  3.3111614325596659e-30  1.0356050794185126e-30  -3.0264152321349956e-30  3.2633222986888651e-29  5.9203496066379028e-29  -1.3194531005421558e-29  -2.9165028046193772e-23  7.5370672817403746e-25  1.3894488430301605e-24  1.1765606555700653e-24  1.7421647626813814e-24  -8.7517990771510317e-24  -1.0944680355620316e-23  1.3679573121753941e-23  5.3222059509838539e-23  -4.0800158900479287e-23  -2.7444127581883155e-24  4.3674186565266470e-23  -8.8341935743370462e-25  -2.8614692362445265e-26  6.2805768062216748e-26  -1.6546881237873508e-26  -1.8226544538875233e-26  -6.0276658200507874e-26  -3.0496078437466959e-25  -1.1503416460542210e-25  5.6867764501378640e-27  -6.9983805773982335e-29  -3.1925322654116111e-28  -4.0136713282083034e-28  -5.1852479207814635e-28  2.5172582211664400e-27  2.3635156542938272e-28  1.9470271633307566e-28  8.1779161103087125e-29  5.8867632902840198e-30  5.8430037732889750e-30  2.6875490236203761e-30  6.6035434286142599e-30  2.9408128115211740e-29  5.1527703352940830e-29  -1.3435144540900910e-31  -9.3372913767759309e-24  5.5971222441135598e-25  -3.9905994225174842e-25  -4.5902232607036847e-25  1.5556359934405460e-26  1.6548126171757830e-24  3.7888429030637032e-24  -2.2493758382844024e-25  -5.0393564089192941e-27  -3.9098752248796389e-27  -5.1610700011753834e-27  -3.5831327426284842e-27  -1.2090101546353577e-26  -5.0702780390538698e-26  -4.3804957171799016e-26  8.1420607474422279e-28  -3.5135266769001471e-29  -8.4767400851560344e-29  -5.1647482120897996e-30  6.1077871399460741e-28  3.6914082751820208e-28  -2.9254524145134247e-29  2.8583241296411435e-30  -2.1069196350808940e-30  -8.0868821966454251e-31  1.6707631973343028e-30  -9.4375362188881674e-32  3.0737648397033210e-26  4.6540859355049634e-27  4.0783564259897190e-26  -1.2729168995767171e-26  -1.4574775650100446e-27  -3.1177676837826162e-27  -2.1780700799383984e-27  -1.0524412912103139e-27  -8.1414726794822485e-27  -1.5867816105130479e-26  -5.1860523679522706e-27  -3.6368048012278806e-27  1.2751715945621304e-26  9.1805936695209232e-26  -1.1203096746154749e-26  9.7653429955130726e-26  -3.6935561367955303e-26  3.9656203714652470e-25  2.9874978725845789e-27  1.4459755271340163e-28  -1.0814832080358345e-27  -7.3029869160561253e-28  5.0694443608233461e-28  -1.5185939471294346e-28  -1.4840968261940340e-28  -1.1975848596909431e-28  7.2653670924147002e-28  -2.7329645570102987e-28  1.3734420567579650e-27  -7.0733034742120926e-28  1.1573886161151956e-28  3.1553662283033575e-30  -2.1848845627741730e-29  -1.7770890319247449e-29  2.9752619943669043e-29  -3.7163566938510966e-30  -3.7856051625224647e-30  -2.7289917007931899e-30  2.0006446500109182e-29  -3.8257519514683052e-30  1.6556853167122147e-28  -2.7880265241021531e-29  2.2757062856129209e-30  1.5536528246788399e-32  -6.2306280640719169e-31  -6.3281989331490782e-31  7.8304566888129354e-31  -1.8643064191465707e-31  -1.8789770591165942e-31  -1.1900849524015566e-31  3.6279191394360008e-31  -1.4523577223945339e-31  2.9118101485566132e-30  -4.1629752009977066e-31  -8.5223893271505898e-25  8.2835056679827158e-26  4.0548378019661559e-25  1.2648714538052761e-25  -1.3595666924997339e-26  -1.2296623832923920e-25  -1.8011682844383823e-24  1.1003966671456243e-24  7.0963119034535734e-26  1.8873454027645405e-24  -3.8538145693421527e-25  6.7445104478862590e-24  1.1484416153855318e-26  2.7115112899629763e-28  -5.7503758360405742e-27  -5.4822061582672064e-27  -1.1916275747557484e-27  4.6014421963865841e-27  5.7303053126116583e-27  -3.1090362954814422e-27  9.9827005458150443e-28  2.9421667806233154e-30  -1.2100501873195464e-28  -7.2702419957366582e-29  -2.5281616761008561e-29  1.4625424276673208e-28  1.3085386109598103e-27  -3.1694261167908733e-29  1.2535486269274321e-29  3.5460857013544282e-32  -1.7426179821653753e-30  -1.6099191749450705e-30  -8.0794515251542189e-31  3.0811930138986512e-30  1.2675698807844732e-29  3.9152912085053009e-31  -4.9274322685324013e-24  5.1388477402379612e-25  7.0700554758636480e-25  1.6886698963907086e-25  -7.2761801235289364e-26  -6.7030029685069983e-25  -5.0820633691051144e-24  8.9503265257586373e-24  2.3337922005832779e-24  8.6676393155535617e-24  -1.2070685777831033e-24  2.2965234956050572e-23  -1.1214102416763217e-25  -9.3041500990480328e-28  -1.4547994726680552e-26  -1.0017831837949200e-26  -5.6026995869090214e-27  1.2342648037536347e-26  3.5042677977168154e-26  -2.1439495493355018e-27  3.4382849851793477e-27  -4.8959004086418608e-30  -1.9781110302960993e-28  -1.0618704121127173e-28  -3.5596736492028152e-29  5.6378436692644314e-28  2.6636098666504159e-27  1.3160531506925714e-28  2.3251271002563958e-29  -2.9012149875529435e-31  8.1727501732329943e-31  -2.0176814252875324e-31  -5.6653538281634948e-31  1.4349493636859972e-30  -3.2994482492730035e-30  6.6322540416920156e-31  -5.9642777279620897e-24  5.8972554056071022e-25  -2.1552771940064847e-25  4.4444435530439206e-26  -5.5695876064279726e-26  -5.4607526311696287e-25  -2.1323774140546395e-24  7.1911536302295842e-24  7.0121519639161379e-24  -5.0407094344910803e-24  -4.9031555937263349e-25  1.1433085403340850e-23  4.0015109530832484e-26  -9.6914454210845755e-28  -3.8281750939236226e-27  -3.7472997352158777e-27  -4.7913421072151537e-27  5.6506363306139277e-27  1.3291342984839862e-26  3.9631115058326625e-27  2.5981232367135232e-27  -5.9351113438323798e-30  -5.3652945786054255e-29  -4.1631449236237940e-29  -2.8853786183332988e-29  4.6094499074324431e-28  9.9776226530494437e-28  1.3504733845719888e-30  4.2724865050020623e-30  -1.0237274844390190e-30  -2.2233846765551773e-32  -1.6738518747277530e-31  1.4627712098722952e-31  1.5548404839099013e-30  3.3223321390254410e-30  -3.4784568334912555e-31  -9.9224401800453313e-25  1.0537726849576933e-26  -2.7984027560706685e-27  1.0689724659129733e-26  -2.3167660346458643e-28  -4.1813319330111360e-30  1.8025798881748823e-29  5.1405973658993386e-30  -1.9556913726462261e-31  2.6933314915023846e-31  5.3297146560228414e-32  -3.5489390847677704e-31  -1.5798051711129696e-30  5.5601331571713345e-27  4.6970647149233434e-28  7.3042739237165407e-28  -1.3144072832515789e-28  -8.7439424395691168e-29  -2.7811797259368939e-28  -1.6923844124833616e-28  -1.7014093386299872e-28  -2.7734408800895191e-27  -6.4727711608203003e-28  5.3861636836083701e-29  -2.7004980058814487e-28  1.3400931036409247e-26  5.7875632078677902e-27  -6.6938317313241757e-28  -6.9898024527675510e-27  -1.9683115192273474e-27  -9.6095581146534213e-27  4.1358945225317739e-28  2.2375057272053795e-29  -1.2928379418532512e-28  -6.8687199988458486e-29  7.9016705502604553e-29  -1.8770014468717114e-29  -1.4883366848376031e-29  -8.5026164841460538e-30  2.7312794714849519e-29  -2.1418216326437779e-29  5.1587766043356007e-28  -1.6613519591979230e-28  1.6344899608984188e-29  2.5798933295812680e-31  -2.7384119663307440e-30  -2.3609403511146721e-30  4.2099615569906517e-30  -8.3877167184939813e-31  -6.4629457249507131e-31  -4.1469016397109219e-31  2.1806799672972920e-30  -1.0104928293600361e-30  1.8066933632094288e-29  -2.3816827093708056e-30  3.2656143830656097e-31  2.6099215787751374e-32  -8.1556662942445729e-32  -6.5691890773653937e-32  1.5105326644945917e-31  -1.2973441484331947e-32  -3.3941646498321930e-32  -1.5060653469147140e-32  8.3870770357565188e-32  -7.4624082060426261e-33  3.9429665987784616e-31  -2.7917489334823124e-32  -1.8333266379978145e-26  4.8557589004733239e-27  5.5751013922920734e-27  -2.5146702329261090e-27  -2.2682076952781985e-27  1.5230064028290021e-27  8.6704017523285347e-26  9.2096524430908874e-26  -1.0536398233274136e-26  -7.4776097645790704e-26  -1.5864771733029777e-26  7.4531944737959173e-26  3.9549765259524758e-27  5.4272383400226199e-29  -5.1470089157296939e-28  -3.7164647077815080e-28  -8.9898666382441270e-29  6.9964553161357666e-29  4.5797355737568044e-27  -8.8967527226535409e-28  9.8746124766865112e-29  1.5477929401121799e-30  -1.1366809408364017e-29  -8.3363277276514209e-30  -2.9663082854091200e-30  1.5204507067164443e-29  5.5218099749000201e-29  1.0020340361278992e-32  1.6837980940366825e-30  4.4842744725887803e-32  -1.8857173949880598e-31  -2.4382084977110289e-31  -8.1534282239693604e-32  1.9081012506662895e-31  5.7990689034014935e-31  1.6063220122906274e-31  -5.7377003968849958e-26  1.2594419692074651e-26  -9.1151834744955751e-27  -1.5344792979039982e-26  -1.1893166214879144e-26  8.2127404511412733e-29  2.5568149200230211e-25  5.8459963891743627e-25  -9.6958814474378018e-26  -3.0365023292477689e-25  -3.0499383818546329e-26  7.5799280302912847e-25  1.4231467269121744e-26  1.3546278594399408e-28  -1.0910855406288477e-27  -7.0923604481265931e-28  -3.0259370926216265e-28  2.6955653968219655e-28  1.2128467042400227e-26  -1.6106040701743305e-27  3.1083995191773668e-28  -8.2469278269404942e-30  -3.2068671067964064e-29  -1.6935629526179500e-29  -7.1710438699254514e-30  3.1869374370877038e-29  2.7145429481532136e-28  -1.2378449533202221e-29  3.4296945335201735e-30  -1.7352684417815403e-31  -3.7020618594760134e-31  -4.6371670063319324e-31  -1.6812598624362171e-31  8.8116026759226874e-31  3.0318668016141095e-30  1.5890087826762937e-31  1.4102891367249892e-25  9.7857608011784773e-27  -4.2092381212067334e-27  8.5343363583421453e-28  -1.2491404690645129e-26  1.2079184896657096e-26  -3.7223124188455683e-26  1.1186016052468781e-24  -2.1545535967426781e-25  -1.3422774703212245e-25  1.5625618052965460e-26  -7.0667463424616306e-25  1.2524305333478413e-26  1.9862508393345304e-28  -3.5272254762218956e-28  -2.9507411466300104e-28  -2.8301905505168081e-28  3.2131410174406421e-28  3.8063084180991185e-27  5.7750855076490429e-28  3.0818895025883986e-28  -6.3155725889668695e-30  -1.0153586854242447e-29  -5.5530039530189978e-30  -5.3738214590582156e-30  3.1464349176082902e-29  1.0727506492336018e-28  -2.7483966916449550e-30  2.1990674668154430e-30  -1.1188991577067822e-32  -4.0877833662427432e-32  -1.4952507114657088e-31  -1.5234265273512508e-31  6.1363096185598301e-31  6.9012531465200582e-31  -4.8883704327203881e-32  -6.8338966886283804e-26  1.3031682091594891e-27  -6.6379149910598553e-27  -1.0130339698828534e-25  6.2505144799356966e-26  -1.6706592190396653e-26  1.9062943696087828e-27  -2.5754875788251485e-28  -7.3865567159532425e-29  -2.3112721677887737e-30  4.0467305167039476e-30  1.0788113158883956e-30  -2.5228773338290147e-32  2.1623422483344577e-31  1.1390883203933524e-28  2.2132296712978654e-29  -8.1356037622599342e-29  -6.9685612058257068e-29  -2.0005498465359179e-30  -7.8977382261894859e-30  -1.1504678181220659e-29  -6.2511322138867018e-30  1.0817738664122950e-28  1.2887748397373674e-28  -3.1196993413628792e-29  -1.5860912117394850e-29  1.9156226924058606e-28  1.1304793257887474e-28  6.6145715346798870e-29  7.2906898119119316e-28  -1.5996009876572632e-28  8.1748161136005144e-28  2.3582683889144340e-29  2.3186512056964957e-30  -5.3084949319579292e-30  -9.1134583892600318e-30  4.7217123227178675e-30  -1.4221445576810153e-30  -1.8899482386911426e-30  -9.0102862269508083e-31  1.0564764605613596e-30  -2.7131087837601051e-30  2.1474683543110928e-29  -9.9659551611296110e-30  1.4051503139696130e-30  7.8165882942151675e-32  -3.0217673318233471e-31  -4.0303155546476189e-31  3.8485380388820308e-31  -6.3715416307292595e-32  -1.3136169779273010e-