<?xml version="1.0"?>
<VTKFile type="UnstructuredGrid"  version="0.1"  >
<UnstructuredGrid>
<Piece  NumberOfPoints="2082" NumberOfCells="9539">
<Points>
<DataArray  type="Float64"  NumberOfComponents="3"  format="ascii">3 0 0  3.25 0.25 0.25  3.25 0.25 0  3.25 0 0  3.5 0 0  3.5 0.25 0.25  3.5 0.25 0  3.5 0.5 0  3.5 0.5 0.25  3.5 0.5 0.5  3.25 0 0.25  3.5 0 0.25  3.5 0 0.5  3.5 0.25 0.5  3 0 0.25  3 0 0.5  3.25 0.25 0.5  3.25 0 0.5  3 0.25 0  3 0.5 0  3.25 0.5 0.25  3.25 0.5 0  3 0.25 0.25  3 0.25 0.5  3 0.5 0.5  3.25 0.5 0.5  3 0.5 0.25  3.75 0.25 0.25  3.75 0.25 0  3.75 0 0  4 0 0  4 0.25 0.25  4 0.25 0  4 0.5 0  4 0.5 0.25  4 0.5 0.5  3.75 0 0.25  4 0 0.25  4 0 0.5  4 0.25 0.5  3.75 0.25 0.5  3.75 0 0.5  3.75 0.5 0.25  3.75 0.5 0  3.75 0.5 0.5  4.25 0.25 0.25  4.25 0.25 0  4.25 0 0  4.5 0 0  4.5 0.25 0.25  4.5 0.25 0  4.5 0.5 0  4.5 0.5 0.25  4.5 0.5 0.5  4.25 0 0.25  4.5 0 0.25  4.5 0 0.5  4.5 0.25 0.5  4.25 0.25 0.5  4.25 0 0.5  4.25 0.5 0.25  4.25 0.5 0  4.25 0.5 0.5  4.75 0.25 0.25  4.75 0.25 0  4.75 0 0  5 0 0  5 0.25 0.25  5 0.25 0  5 0.5 0  5 0.5 0.25  5 0.5 0.5  4.75 0 0.25  5 0 0.25  5 0 0.5  5 0.25 0.5  4.75 0.25 0.5  4.75 0 0.5  4.75 0.5 0.25  4.75 0.5 0  4.75 0.5 0.5  3.25 0.75 0.25  3.25 0.75 0  3.5 0.75 0.25  3.5 0.75 0  3.5 1 0  3.5 1 0.25  3.5 1 0.5  3.5 0.75 0.5  3.25 0.75 0.5  3 0.75 0  3 1 0  3.25 1 0.25  3.25 1 0  3 0.75 0.25  3 0.75 0.5  3 1 0.5  3.25 1 0.5  3 1 0.25  3.75 0.75 0.25  3.75 0.75 0  4 0.75 0.25  4 0.75 0  4 1 0  4 1 0.25  4 1 0.5  4 0.75 0.5  3.75 0.75 0.5  3.75 1 0.25  3.75 1 0  3.75 1 0.5  4.25 0.75 0.25  4.25 0.75 0  4.5 0.75 0.25  4.5 0.75 0  4.5 1 0  4.5 1 0.25  4.5 1 0.5  4.5 0.75 0.5  4.25 0.75 0.5  4.25 1 0.25  4.25 1 0  4.25 1 0.5  4.75 0.75 0.25  4.75 0.75 0  5 0.75 0.25  5 0.75 0  5 1 0  5 1 0.25  5 1 0.5  5 0.75 0.5  4.75 0.75 0.5  4.75 1 0.25  4.75 1 0  4.75 1 0.5  3.25 1.25 0.25  3.25 1.25 0  3.5 1.25 0.25  3.5 1.25 0  3.5 1.5 0  3.5 1.5 0.25  3.5 1.5 0.5  3.5 1.25 0.5  3.25 1.25 0.5  3 1.25 0  3 1.5 0  3.25 1.5 0.25  3.25 1.5 0  3 1.25 0.25  3 1.25 0.5  3 1.5 0.5  3.25 1.5 0.5  3 1.5 0.25  3.75 1.25 0.25  3.75 1.25 0  4 1.25 0.25  4 1.25 0  4 1.5 0  4 1.5 0.25  4 1.5 0.5  4 1.25 0.5  3.75 1.25 0.5  3.75 1.5 0.25  3.75 1.5 0  3.75 1.5 0.5  4.25 1.25 0.25  4.25 1.25 0  4.5 1.25 0.25  4.5 1.25 0  4.5 1.5 0  4.5 1.5 0.25  4.5 1.5 0.5  4.5 1.25 0.5  4.25 1.25 0.5  4.25 1.5 0.25  4.25 1.5 0  4.25 1.5 0.5  4.75 1.25 0.25  4.75 1.25 0  5 1.25 0.25  5 1.25 0  5 1.5 0  5 1.5 0.25  5 1.5 0.5  5 1.25 0.5  4.75 1.25 0.5  4.75 1.5 0.25  4.75 1.5 0  4.75 1.5 0.5  3.25 1.75 0.25  3.25 1.75 0  3.5 1.75 0.25  3.5 1.75 0  3.5 2 0  3.5 2 0.25  3.5 2 0.5  3.5 1.75 0.5  3.25 1.75 0.5  3 1.75 0  3 2 0  3.25 2 0.25  3.25 2 0  3 1.75 0.25  3 1.75 0.5  3 2 0.5  3.25 2 0.5  3 2 0.25  3.75 1.75 0.25  3.75 1.75 0  4 1.75 0.25  4 1.75 0  4 2 0  4 2 0.25  4 2 0.5  4 1.75 0.5  3.75 1.75 0.5  3.75 2 0.25  3.75 2 0  3.75 2 0.5  4.25 1.75 0.25  4.25 1.75 0  4.5 1.75 0.25  4.5 1.75 0  4.5 2 0  4.5 2 0.25  4.5 2 0.5  4.5 1.75 0.5  4.25 1.75 0.5  4.25 2 0.25  4.25 2 0  4.25 2 0.5  4.75 1.75 0.25  4.75 1.75 0  5 1.75 0.25  5 1.75 0  5 2 0  5 1.75 0.5  5 2 0.5  4.75 1.75 0.5  4.75 2 0  4.75 2 0.5  3.25 2.25 0.25  3.25 2.25 0  3.5 2.25 0.25  3.5 2.25 0  3.5 2.5 0  3.5 2.25 0.5  3.5 2.5 0.5  3.25 2.25 0.5  3.75 2.25 0.25  3.75 2.25 0  4 2.25 0.25  3.75 2.25 0.5  4.25 2.25 0.25  3.25 0.25 0.75  3.5 0.25 0.75  3.5 0.5 0.75  3.5 0.5 1  3.25 0 0.75  3.5 0 0.75  3.5 0 1  3.5 0.25 1  3 0 0.75  3 0 1  3.25 0.25 1  3.25 0 1  3.25 0.5 0.75  3 0.25 0.75  3 0.25 1  3 0.5 1  3.25 0.5 1  3 0.5 0.75  3.75 0.25 0.75  4 0.25 0.75  4 0.5 0.75  4 0.5 1  3.75 0 0.75  4 0 0.75  4 0 1  4 0.25 1  3.75 0.25 1  3.75 0 1  3.75 0.5 0.75  3.75 0.5 1  4.25 0.25 0.75  4.5 0.25 0.75  4.5 0.5 0.75  4.5 0.5 1  4.25 0 0.75  4.5 0 0.75  4.5 0 1  4.5 0.25 1  4.25 0.25 1  4.25 0 1  4.25 0.5 0.75  4.25 0.5 1  4.75 0.25 0.75  5 0.25 0.75  5 0.5 0.75  5 0.5 1  4.75 0 0.75  5 0 0.75  5 0 1  5 0.25 1  4.75 0.25 1  4.75 0 1  4.75 0.5 0.75  4.75 0.5 1  3.25 0.75 0.75  3.5 0.75 0.75  3.5 1 0.75  3.5 1 1  3.5 0.75 1  3.25 0.75 1  3.25 1 0.75  3 0.75 0.75  3 0.75 1  3 1 1  3.25 1 1  3 1 0.75  3.75 0.75 0.75  4 0.75 0.75  4 1 0.75  4 1 1  4 0.75 1  3.75 0.75 1  3.75 1 0.75  3.75 1 1  4.25 0.75 0.75  4.5 0.75 0.75  4.5 1 0.75  4.5 1 1  4.5 0.75 1  4.25 0.75 1  4.25 1 0.75  4.25 1 1  4.75 0.75 0.75  5 0.75 0.75  5 1 0.75  5 1 1  5 0.75 1  4.75 0.75 1  4.75 1 0.75  4.75 1 1  3.25 1.25 0.75  3.5 1.25 0.75  3.5 1.5 0.75  3.5 1.5 1  3.5 1.25 1  3.25 1.25 1  3.25 1.5 0.75  3 1.25 0.75  3 1.25 1  3 1.5 1  3.25 1.5 1  3 1.5 0.75  3.75 1.25 0.75  4 1.25 0.75  4 1.5 0.75  4 1.5 1  4 1.25 1  3.75 1.25 1  3.75 1.5 0.75  3.75 1.5 1  4.25 1.25 0.75  4.5 1.25 0.75  4.5 1.5 0.75  4.5 1.5 1  4.5 1.25 1  4.25 1.25 1  4.25 1.5 0.75  4.25 1.5 1  4.75 1.25 0.75  5 1.25 0.75  5 1.5 0.75  5 1.5 1  5 1.25 1  4.75 1.25 1  4.75 1.5 0.75  4.75 1.5 1  3.25 1.75 0.75  3.5 1.75 0.75  3.5 2 0.75  3.5 2 1  3.5 1.75 1  3.25 1.75 1  3.25 2 0.75  3 1.75 0.75  3 1.75 1  3 2 1  3.25 2 1  3 2 0.75  3.75 1.75 0.75  4 1.75 0.75  4 2 0.75  4 2 1  4 1.75 1  3.75 1.75 1  3.75 2 0.75  3.75 2 1  4.25 1.75 0.75  4.5 1.75 0.75  4.5 2 0.75  4.5 2 1  4.5 1.75 1  4.25 1.75 1  4.25 2 0.75  4.25 2 1  4.75 1.75 0.75  5 1.75 0.75  5 2 0.75  5 2 1  5 1.75 1  4.75 1.75 1  3.25 2.25 0.75  3.5 2.25 0.75  3.75 2.25 0.75  4 2.25 0.75  3.75 2.25 1  4.25 2.25 0.75  3.25 0.25 1.25  3.5 0.25 1.25  3.5 0.5 1.25  3.5 0.5 1.5  3.25 0 1.25  3.5 0 1.25  3.5 0 1.5  3.5 0.25 1.5  3 0 1.25  3 0 1.5  3.25 0.25 1.5  3.25 0 1.5  3.25 0.5 1.25  3 0.25 1.25  3 0.25 1.5  3 0.5 1.5  3.25 0.5 1.5  3 0.5 1.25  3.75 0.25 1.25  4 0.25 1.25  4 0.5 1.25  4 0.5 1.5  3.75 0 1.25  4 0 1.25  4 0 1.5  4 0.25 1.5  3.75 0.25 1.5  3.75 0 1.5  3.75 0.5 1.25  3.75 0.5 1.5  4.25 0.25 1.25  4.5 0.25 1.25  4.5 0.5 1.25  4.5 0.5 1.5  4.25 0 1.25  4.5 0 1.25  4.5 0 1.5  4.5 0.25 1.5  4.25 0.25 1.5  4.25 0 1.5  4.25 0.5 1.25  4.25 0.5 1.5  4.75 0.25 1.25  5 0.25 1.25  5 0.5 1.25  5 0.5 1.5  4.75 0 1.25  5 0 1.25  5 0 1.5  5 0.25 1.5  4.75 0.25 1.5  4.75 0 1.5  4.75 0.5 1.25  4.75 0.5 1.5  3.25 0.75 1.25  3.5 0.75 1.25  3.5 1 1.25  3.5 1 1.5  3.5 0.75 1.5  3.25 0.75 1.5  3.25 1 1.25  3 0.75 1.25  3 0.75 1.5  3 1 1.5  3.25 1 1.5  3 1 1.25  3.75 0.75 1.25  4 0.75 1.25  4 1 1.25  4 1 1.5  4 0.75 1.5  3.75 0.75 1.5  3.75 1 1.25  3.75 1 1.5  4.25 0.75 1.25  4.5 0.75 1.25  4.5 1 1.25  4.5 1 1.5  4.5 0.75 1.5  4.25 0.75 1.5  4.25 1 1.25  4.25 1 1.5  4.75 0.75 1.25  5 0.75 1.25  5 1 1.25  5 1 1.5  5 0.75 1.5  4.75 0.75 1.5  4.75 1 1.25  4.75 1 1.5  3.25 1.25 1.25  3.5 1.25 1.25  3.5 1.5 1.25  3.5 1.5 1.5  3.5 1.25 1.5  3.25 1.25 1.5  3.25 1.5 1.25  3 1.25 1.25  3 1.25 1.5  3 1.5 1.5  3.25 1.5 1.5  3 1.5 1.25  3.75 1.25 1.25  4 1.25 1.25  4 1.5 1.25  4 1.5 1.5  4 1.25 1.5  3.75 1.25 1.5  3.75 1.5 1.25  3.75 1.5 1.5  4.25 1.25 1.25  4.5 1.25 1.25  4.5 1.5 1.25  4.5 1.5 1.5  4.5 1.25 1.5  4.25 1.25 1.5  4.25 1.5 1.25  4.25 1.5 1.5  4.75 1.25 1.25  5 1.25 1.25  5 1.5 1.25  5 1.5 1.5  5 1.25 1.5  4.75 1.25 1.5  4.75 1.5 1.25  4.75 1.5 1.5  3.25 1.75 1.25  3.5 1.75 1.25  3.5 2 1.25  3.5 2 1.5  3.5 1.75 1.5  3.25 1.75 1.5  3 1.75 1.25  3 1.75 1.5  3.75 1.75 1.25  4 1.75 1.25  4 2 1.25  4 2 1.5  4 1.75 1.5  3.75 1.75 1.5  3.75 2 1.25  3.75 2 1.5  4.25 1.75 1.25  4.5 1.75 1.25  4.5 2 1.25  4.5 2 1.5  4.5 1.75 1.5  4.25 1.75 1.5  4.25 2 1.5  4.75 1.75 1.25  5 1.75 1.25  5 2 1.25  5 2 1.5  5 1.75 1.5  4.75 1.75 1.5  4.75 2 1.5  3.75 2.25 1.25  3.25 0.25 1.75  3.5 0.25 1.75  3.5 0.5 1.75  3.5 0.5 2  3.25 0 1.75  3.5 0 1.75  3.5 0 2  3.5 0.25 2  3 0 1.75  3 0 2  3.25 0.25 2  3.25 0 2  3.25 0.5 1.75  3 0.25 1.75  3 0.25 2  3 0.5 2  3.25 0.5 2  3 0.5 1.75  3.75 0.25 1.75  4 0.25 1.75  4 0.5 1.75  4 0.5 2  3.75 0 1.75  4 0 1.75  4 0 2  4 0.25 2  3.75 0.25 2  3.75 0 2  3.75 0.5 1.75  3.75 0.5 2  4.25 0.25 1.75  4.5 0.25 1.75  4.5 0.5 1.75  4.5 0.5 2  4.25 0 1.75  4.5 0 1.75  4.5 0 2  4.5 0.25 2  4.25 0.25 2  4.25 0 2  4.25 0.5 1.75  4.25 0.5 2  4.75 0.25 1.75  5 0.25 1.75  5 0.5 1.75  5 0.5 2  4.75 0 1.75  5 0 1.75  5 0 2  5 0.25 2  4.75 0.25 2  4.75 0 2  4.75 0.5 1.75  4.75 0.5 2  3.25 0.75 1.75  3.5 0.75 1.75  3.5 1 1.75  3.5 1 2  3.5 0.75 2  3.25 0.75 2  3.25 1 1.75  3 0.75 1.75  3 0.75 2  3 1 2  3.25 1 2  3 1 1.75  3.75 0.75 1.75  4 0.75 1.75  4 1 1.75  4 1 2  4 0.75 2  3.75 0.75 2  3.75 1 1.75  3.75 1 2  4.25 0.75 1.75  4.5 0.75 1.75  4.5 1 1.75  4.5 1 2  4.5 0.75 2  4.25 0.75 2  4.25 1 1.75  4.25 1 2  4.75 0.75 1.75  5 0.75 1.75  5 1 1.75  5 1 2  5 0.75 2  4.75 0.75 2  4.75 1 1.75  4.75 1 2  3.25 1.25 1.75  3.5 1.25 1.75  3.5 1.5 1.75  3.5 1.5 2  3.5 1.25 2  3.25 1.25 2  3.25 1.5 1.75  3 1.25 1.75  3 1.25 2  3 1.5 2  3.25 1.5 2  3 1.5 1.75  3.75 1.25 1.75  4 1.25 1.75  4 1.5 1.75  4 1.5 2  4 1.25 2  3.75 1.25 2  3.75 1.5 1.75  3.75 1.5 2  4.25 1.25 1.75  4.5 1.25 1.75  4.5 1.5 1.75  4.5 1.5 2  4.5 1.25 2  4.25 1.25 2  4.25 1.5 1.75  4.25 1.5 2  4.75 1.25 1.75  5 1.25 1.75  5 1.5 1.75  5 1.5 2  5 1.25 2  4.75 1.25 2  4.75 1.5 1.75  4.75 1.5 2  3.25 1.75 1.75  3.5 1.75 1.75  3.5 2 1.75  3.5 2 2  3.5 1.75 2  3.25 1.75 2  3 1.75 1.75  3 1.75 2  3.75 1.75 1.75  4 1.75 1.75  4 2 1.75  4 2 2  4 1.75 2  3.75 1.75 2  3.75 2 1.75  3.75 2 2  4.25 1.75 1.75  4.5 1.75 1.75  4.5 2 1.75  4.5 2 2  4.5 1.75 2  4.25 1.75 2  4.25 2 2  4.75 1.75 1.75  5 1.75 1.75  5 2 1.75  5 2 2  5 1.75 2  4.75 1.75 2  4.75 2 1.75  4.75 2 2  3.75 2.25 1.75  3.75 2.25 2  4.75 2.25 1.75  5 2.25 1.75  5 2.25 2  5 2.5 2  4.75 2.25 2  3.25 0.25 2.25  3.5 0.25 2.25  3.5 0.5 2.25  3.5 0.5 2.5  3.25 0 2.25  3.5 0 2.25  3.5 0 2.5  3.5 0.25 2.5  3 0 2.25  3 0 2.5  3.25 0.25 2.5  3.25 0 2.5  3.25 0.5 2.25  3 0.25 2.25  3 0.25 2.5  3 0.5 2.5  3.25 0.5 2.5  3 0.5 2.25  3.75 0.25 2.25  4 0.25 2.25  4 0.5 2.25  4 0.5 2.5  3.75 0 2.25  4 0 2.25  4 0 2.5  4 0.25 2.5  3.75 0.25 2.5  3.75 0 2.5  3.75 0.5 2.25  3.75 0.5 2.5  4.25 0.25 2.25  4.5 0.25 2.25  4.5 0.5 2.25  4.5 0.5 2.5  4.25 0 2.25  4.5 0 2.25  4.5 0 2.5  4.5 0.25 2.5  4.25 0.25 2.5  4.25 0 2.5  4.25 0.5 2.25  4.25 0.5 2.5  4.75 0.25 2.25  5 0.25 2.25  5 0.5
[...]
<PointData  Scalars="p_O2"> 
<DataArray  type="Float64"  Name="p_O2"  format="ascii">9.9180472044461297e+01  9.8443979274281972e+01  9.8963686176178769e+01  9.9309805632462599e+01  9.9411942942656438e+01  9.8673058956265962e+01  9.9116633805199584e+01  9.8839646575411678e+01  9.8256974935503735e+01  9.7710346725375757e+01  9.8963686176183614e+01  9.9116633805188258e+01  9.8839646575471491e+01  9.8256974935540470e+01  9.8770162644591181e+01  9.8388314957974828e+01  9.7958148731183215e+01  9.8640138112633906e+01  9.8770162644589888e+01  9.8388314957948666e+01  9.7958148731145329e+01  9.8640138112599644e+01  9.8154457531480816e+01  9.7581400852341872e+01  9.6830191922698106e+01  9.7320502199102350e+01  9.7581400852313919e+01  9.8852934388451771e+01  9.9236639041726576e+01  9.9491988800188267e+01  9.9553675605949323e+01  9.8991678097964112e+01  9.9329141311362378e+01  9.9117563074542446e+01  9.8673668444624994e+01  9.8255335796156018e+01  9.9236639041745235e+01  9.9329141311356395e+01  9.9117563074649809e+01  9.8673668444660066e+01  9.8492077121712327e+01  9.8996496063825845e+01  9.8492077121702820e+01  9.8996496063804344e+01  9.8017651814774709e+01  9.9094956653679176e+01  9.9397971695954439e+01  9.9599534798226770e+01  9.9631355845570923e+01  9.9166626144037266e+01  9.9445718225997425e+01  9.9270350710065401e+01  9.8902959352125762e+01  9.8555860502382131e+01  9.9397971695948968e+01  9.9445718226012161e+01  9.9270350710177567e+01  9.8902959352194259e+01  9.8808990545390472e+01  9.9207749335576551e+01  9.8808990545350412e+01  9.9207749335535851e+01  9.8432650117563028e+01  9.9209011903859235e+01  9.9473952687075922e+01  9.9650152052035139e+01  9.9656422773827273e+01  9.9223129237865962e+01  9.9483353708797253e+01  9.9319722082481960e+01  9.8977083766794749e+01  9.8653104185142368e+01  9.9473952687078111e+01  9.9483353708825078e+01  9.9319722082603349e+01  9.8977083766822389e+01  9.8958563173401103e+01  9.9307390655287065e+01  9.8958563173354094e+01  9.9307390655254096e+01  9.8628806276409918e+01  9.7515390424076358e+01  9.8345311445141448e+01  9.7876146608136395e+01  9.8586156633153664e+01  9.8360339607434284e+01  9.7536896030675450e+01  9.6764187338348023e+01  9.7209993698239984e+01  9.6739310297000145e+01  9.8042359644565323e+01  9.7737662980690445e+01  9.7122938952107077e+01  9.8083990184158381e+01  9.7062106490474363e+01  9.6149316539867883e+01  9.5549410478094842e+01  9.6224020717788662e+01  9.6604730368920258e+01  9.8160680955484978e+01  9.8775973851792244e+01  9.8380884438086895e+01  9.8922780652658773e+01  9.8748087059031434e+01  9.8118303740688333e+01  9.7524717909057372e+01  9.7870176950130286e+01  9.7581938484983354e+01  9.7864348175157374e+01  9.8578783208396985e+01  9.7192274092085725e+01  9.8545202164599345e+01  9.9032286722117405e+01  9.8659423891294651e+01  9.9108380129045543e+01  9.8962576646608667e+01  9.8440204550916931e+01  9.7946660334327660e+01  9.8235263373398482e+01  9.8085493031207889e+01  9.8308119046966610e+01  9.8874584725186878e+01  9.7773458447309622e+01  9.8727048543052732e+01  9.9153425700302762e+01  9.8749583794019387e+01  9.9168432381491897e+01  9.9032075880668629e+01  9.8544551145166238e+01  9.8083560807693431e+01  9.8353546919648025e+01  9.8323981351163781e+01  9.8518466747562286e+01  9.9014708502891764e+01  9.8049337416525617e+01  9.6785914529853173e+01  9.7859612609428041e+01  9.7244065823819824e+01  9.8165449983989291e+01  9.8003767431948916e+01  9.7001140238031496e+01  9.6060029029892917e+01  9.6379347751900227e+01  9.5781443915633361e+01  9.7477821874137618e+01  9.7264716633475317e+01  9.6507746378892804e+01  9.7674418748543971e+01  9.6214588424252284e+01  9.5037571593816011e+01  9.4617637667881141e+01  9.5416053347878332e+01  9.5894620951470756e+01  9.7607525639800073e+01  9.8407900167159497e+01  9.7890045364645033e+01  9.8596242132618741e+01  9.8469399191862919e+01  9.7699381007262872e+01  9.6973530865616311e+01  9.7224408262244069e+01  9.6854548435058945e+01  9.7393652956405447e+01  9.8265591099205608e+01  9.6573259289762007e+01  9.8101546852035682e+01  9.8737186266564947e+01  9.8248899442263209e+01  9.8835347969955308e+01  9.8728664725311091e+01  9.8088496885536372e+01  9.7483625121482490e+01  9.7694809219739511e+01  9.7501580354491935e+01  9.7928620802647956e+01  9.8622162735240991e+01  9.7273964329576685e+01  9.8336264865738869e+01  9.8893541228306020e+01  9.8365398446490005e+01  9.8912941507610739e+01  9.8812917808235753e+01  9.8214998807834476e+01  9.7649603819402358e+01  9.7847658118876382e+01  9.7809432999456277e+01  9.8183359769823895e+01  9.8791852331271912e+01  9.7608089688406807e+01  9.6290358487966017e+01  9.7529717124147240e+01  9.6810457217177969e+01  9.7876877564789552e+01  9.7785711709506799e+01  9.6673473422118420e+01  9.5629265355617193e+01  9.5809370733110640e+01  9.5130477923035741e+01  9.7099189198192946e+01  9.6981248739259655e+01  9.6134779766381470e+01  9.7426149357296140e+01  9.5646022140351121e+01  9.4291318530586963e+01  9.4058758085848368e+01  9.4926043628060611e+01  9.5468911320882924e+01  9.7225174850136668e+01  9.8153500444700114e+01  9.7548791771208585e+01  9.8369229401523370e+01  9.8296896231756051e+01  9.7440062750895905e+01  9.6632303035019760e+01  9.6775386832970469e+01  9.6351672323216818e+01  9.7103808204360718e+01  9.8072746980990388e+01  9.6192020822788308e+01  9.7791759029947443e+01  9.8531135539977527e+01  9.7961376064133617e+01  9.8644125839694226e+01  9.8582908868230646e+01  9.7869335151394068e+01  9.7195077694298462e+01  9.7316265719555190e+01  9.7093823606958935e+01  9.7692787205712349e+01  9.8465303580535007e+01  9.6963539055752705e+01  9.8062072161499430e+01  9.8711196586455173e+01  9.8095671740651142e+01  9.8733570427381835e+01  9.8676056266422449e+01  9.7492474876774324e+01  9.7378591395786501e+01  9.7448387229594758e+01  9.8652757708447936e+01  9.7332673637780871e+01  9.6041352266621374e+01  9.7363971786810595e+01  9.6591015195733519e+01  9.7730848085028711e+01  9.7712523859168357e+01  9.5520858937960796e+01  9.5484656271544040e+01  9.4803288413210808e+01  9.7030592597219623e+01  9.8024041005818290e+01  9.7374378253063341e+01  9.6095719666498553e+01  9.7632919909729949e+01  9.7515390424164536e+01  9.7876146608224019e+01  9.7209993698327409e+01  9.6764187338526852e+01  9.8345311445193403e+01  9.8586156633207750e+01  9.8360339607544347e+01  9.7536896030835592e+01  9.8042359644630579e+01  9.7737662980802227e+01  9.7122938952248631e+01  9.8083990184259477e+01  9.6739310297080408e+01  9.7062106490561291e+01  9.6604730369072172e+01  9.5549410478222129e+01  9.6224020717925583e+01  9.6149316539925636e+01  9.8160680955628010e+01  9.8380884438173396e+01  9.7870176950214770e+01  9.7524717909322362e+01  9.8775973851859519e+01  9.8922780652720206e+01  9.8748087059194518e+01  9.8118303740860213e+01  9.7864348175334300e+01  9.8578783208522495e+01  9.7581938484993373e+01  9.7192274092255118e+01  9.8545202164776782e+01  9.8659423891372356e+01  9.8235263373509298e+01  9.7946660334416478e+01  9.9032286722212405e+01  9.9108380129131149e+01  9.8962576646646824e+01  9.8440204550962221e+01  9.8308119047051335e+01  9.8874584725297524e+01  9.8085493031238457e+01  9.7773458447382794e+01  9.8727048543219283e+01  9.8749583794144343e+01  9.8353546919676134e+01  9.8083560807587602e+01  9.9153425700375010e+01  9.9168432381573609e+01  9.9032075880691835e+01  9.8544551145223920e+01  9.8518466747516854e+01  9.9014708502916989e+01  9.8323981351076029e+01  9.8049337416368815e+01  9.6031746885921990e+01  9.6600114574136114e+01  9.6056647215524180e+01  9.5426000943985159e+01  9.6056647215609217e+01  9.5404276757206901e+01  9.5404276757130702e+01  9.5321656972382414e+01  9.4592180453337789e+01  9.3748092311057292e+01  9.4677069830931075e+01  9.4592180453261960e+01  9.7050347845531093e+01  9.7399922183620689e+01  9.6978118627760495e+01  9.6487776517388497e+01  9.6978118627891320e+01  9.6574898228203324e+01  9.6574898228029312e+01  9.6022626516601420e+01  9.7661402258668261e+01  9.7843466980399469e+01  9.7490768185524274e+01  9.7080341802130135e+01  9.7490768185400952e+01  9.7280208845006129e+01  9.7280208844936865e+01  9.6836811634710656e+01  9.7951372359914245e+01  9.7987348839600074e+01  9.7657302804619661e+01  9.7273105930597680e+01  9.7657302804367092e+01  9.7615657045550350e+01  9.7615657045651986e+01  9.7224894573919556e+01  9.4865169242045027e+01  9.5587387932363356e+01  9.5197975870504933e+01  9.4429301512250234e+01  9.4881373846142381e+01  9.4052108688226227e+01  9.4419992591201691e+01  9.3969492115941932e+01  9.3027280768835894e+01  9.2435421255897410e+01  9.3535846919441312e+01  9.3458456868770071e+01  9.6162751225279990e+01  9.6611395317377429e+01  9.6305027038209758e+01  9.5705219294307781e+01  9.6061439577977580e+01  9.5543837229558761e+01  9.5819452933074288e+01  9.5144952016868459e+01  9.6948041045466837e+01  9.7182960252285383e+01  9.6924857864535142e+01  9.6421776518136085e+01  9.6722151254638547e+01  9.6450430138328045e+01  9.6669948618317918e+01  9.6126914418253946e+01  9.7322387525715570e+01  9.7368904759969752e+01  9.7126783426026662e+01  9.6655529506763671e+01  9.6937393135558608e+01  9.6883539907502040e+01  9.7076261902477910e+01  9.6597037040457735e+01  9.4071949439833233e+01  9.4892221680492938e+01  9.4672521574236200e+01  9.3819162928071805e+01  9.4074304830643740e+01  9.3132151181715003e+01  9.3822772944383061e+01  9.3061167169618841e+01  9.1975150758835326e+01  9.1646946575473905e+01  9.2843039203093738e+01  9.2777985750378264e+01  9.5548970406027649e+01  9.6063022114292380e+01  9.5888270407632447e+01  9.5220606216521105e+01  9.5423828095891523e+01  9.4830653988492742e+01  9.5354089315428922e+01  9.4604161395851420e+01  9.6449835750188782e+01  9.6720297225602366e+01  9.6572179653836315e+01  9.6011325784688438e+01  9.6183717388542888e+01  9.5870849694272309e+01  9.6290648413603094e+01  9.5685638240614395e+01  9.6881022436932142e+01  9.6934677591413404e+01  9.6795453038177556e+01  9.6269811173612510e+01  9.6431898650709527e+01  9.6369775911426288e+01  9.3673109640414552e+01  9.4540250104976735e+01  9.5236515069154777e+01  9.5782692979396970e+01  9.4467523514335042e+01  9.6194353688304531e+01  9.6785914530071963e+01  9.7244065824059206e+01  9.6379347752137093e+01  9.6060029030298423e+01  9.7859612609590656e+01  9.8165449984146903e+01  9.8003767432254975e+01  9.7001140238452692e+01  9.7477821874311331e+01  9.7264716633687300e+01  9.6507746379221743e+01  9.7674418748783424e+01  9.5781443915819466e+01  9.6214588424474243e+01  9.5894620951782471e+01  9.4617637668160583e+01  9.5416053348139059e+01  9.5037571594031306e+01  9.7607525640068914e+01  9.7890045364870247e+01  9.7224408262482299e+01  9.6973530866021335e+01  9.8407900167350789e+01  9.8596242132742162e+01  9.8469399192179310e+01  9.7699381007693844e+01  9.7393652956892240e+01  9.8265591099560098e+01  9.6854548435320794e+01  9.6573259290247918e+01  9.8101546852109593e+01  9.8248899442111806e+01  9.7694809219565371e+01  9.7483625120868439e+01  9.8737186266603075e+01  9.8835347969793958e+01  9.8728664725011200e+01  9.8088496885059172e+01  9.7928620802710739e+01  9.8622162735338819e+01  9.7501580354531043e+01  9.7273964329668431e+01  9.8336264865417249e+01  9.8365398446113446e+01  9.7847658118296451e+01  9.7649603817989615e+01  9.8893541228053223e+01  9.8912941507297390e+01  9.8812917807433024e+01  9.8214998806642598e+01  9.8183359768748474e+01  9.8791852330624806e+01  9.7809432998937808e+01  9.7608089687144599e+01  9.4865169242094581e+01  9.5587387932546150e+01  9.4881373846137492e+01  9.4429301512207431e+01  9.5197975870728357e+01  9.4419992591313004e+01  9.4052108688218482e+01  9.3969492116089611e+01  9.3458456868948531e+01  9.2435421255939929e+01  9.3535846919316143e+01  9.3027280768895352e+01  9.6162751225543857e+01  9.6611395317582776e+01  9.6061439578103403e+01  9.5705219294496175e+01  9.6305027038605360e+01  9.5819452933546117e+01  9.5543837229525792e+01  9.5144952017034058e+01  9.6948041045659423e+01  9.7182960251982209e+01  9.6722151254448747e+01  9.6421776517441344e+01  9.6924857863892413e+01  9.6669948618370299e+01  9.6450430138093978e+01  9.6126914417990378e+01  9.7322387525365926e+01  9.7368904759379390e+01  9.6937393135111492e+01  9.6655529505196611e+01  9.7126783424458480e+01  9.7076261901083839e+01  9.6883539906784648e+01  9.6597037038725389e+01  9.3353112533730439e+01  9.4271498438527999e+01  9.3765184885440036e+01  9.3213709407354699e+01  9.3765184885293962e+01  9.2775542217832395e+01  9.2775542218034388e+01  9.2222259559465826e+01  9.1561001875864562e+01  9.0842413067746790e+01  9.2147102042990625e+01  9.1561001875878517e+01  9.5007173871744214e+01  9.5583205087465331e+01  9.5183602320703869e+01  9.4747693591400989e+01  9.5183602320618064e+01  9.4560028386542058e+01  9.4560028386449716e+01  9.4072585387542503e+01  9.6016763263138500e+01  9.6319958584233817e+01  9.5982684683319818e+01  9.5614437992022843e+01  9.5982684682528856e+01  9.5653647861179110e+01  9.5653647861407336e+01  9.5257334561640903e+01  9.6500154872012118e+01  9.6560312983564643e+01  9.6243722941172123e+01  9.5897954257192040e+01  9.6243722939745993e+01  9.6178379536987975e+01  9.6178379538202634e+01  9.5826974556629494e+01  9.2323756966606666e+01  9.3367494380682828e+01  9.3081646507656714e+01  9.2469040477987193e+01  9.2780489118831795e+01  9.1655425892078100e+01  9.1046523092847650e+01  9.0283147769997925e+01  9.4207640202873151e+01  9.4867896334122889e+01  9.4639893510431008e+01  9.4154534253989794e+01  9.4403292833912843e+01  9.3688413115373493e+01  9.3953689615521228e+01  9.3411510661561678e+01  9.5366208103667674e+01  9.5715355993193228e+01  9.5521777602368275e+01  9.5111191240663530e+01  9.5322564262103512e+01  9.4943615213169807e+01  9.4716681552238526e+01  9.5923118150670547e+01  9.5992519620555271e+01  9.5810458350992903e+01  9.5424753837996661e+01  9.5623607019285615e+01  9.5548216474692012e+01  9.5346223027113936e+01  9.3800459860915936e+01  9.6290358488374778e+01  9.6810457217859636e+01  9.5809370733804926e+01  9.5629265356943236e+01  9.7529717124476051e+01  9.7876877565258269e+01  9.7785711710361696e+01  9.6673473423321724e+01  9.7099189198448087e+01  9.6981248739438229e+01  9.6134779766903179e+01  9.7426149357692978e+01  9.5130477923373292e+01  9.5646022140704531e+01  9.5468911320949005e+01  9.4058758085775040e+01  9.4926043628413652e+01  9.4291318530868807e+01  9.7225174851007154e+01  9.7548791772011427e+01  9.6775386833961534e+01  9.6632303036686395e+01  9.8153500445292465e+01  9.8369229402010333e+01  9.8296896232644613e+01  9.7440062752619610e+01  9.7103808206002682e+01  9.8072746982052351e+01  9.6351672324185003e+01  9.6192020824767113e+01  9.7791759030324386e+01  9.7961376063254917e+01  9.7316265718798491e+01  9.7195077693384874e+01  9.8531135540153542e+01  9.8644125839050275e+01  9.8582908867348820e+01  9.7869335151905176e+01  9.7692787207262853e+01  9.8465303580530446e+01  9.7093823607355276e+01  9.6963539055845075e+01  9.8062072158435299e+01  9.8095671736792355e+01  9.7492474874453904e+01  9.7378591394251245e+01  9.8711196585026599e+01  9.8733570426024556e+01  9.8676056267053880e+01  9.8009194604888506e+01  9.7974201288629814e+01  9.8652757709196806e+01  9.7448387227631173e+01  9.7332673639487354e+01  9.4071949439794025e+01  9.4892221680968504e+01  9.4074304830494071e+01  9.3819162927393521e+01  9.4672521575041330e+01  9.3822772944277276e+01  9.3132151181198708e+01  9.3061167169722495e+01  9.2777985750200813e+01  9.1646946574260951e+01  9.2843039201459320e+01  9.1975150758563814e+01  9.5548970407011709e+01  9.6063022115344765e+01  9.5423828096574567e+01  9.5220606218913233e+01  9.5888270410746060e+01  9.5354089317589526e+01  9.4830653988982533e+01  9.4604161397975830e+01  9.6449835750662359e+01  9.6720297224647851e+01  9.6183717386967743e+01  9.6011325784065960e+01  9.6572179654268822e+01  9.6290648416529649e+01  9.5870849694013401e+01  9.5685638241470798e+01  9.6881022433785589e+01  9.6934677588919115e+01  9.6431898647509527e+01  9.6269811172678999e+01  9.6795453039106690e+01  9.6739569262546482e+01  9.6369775905964886e+01  9.6205105406412756e+01  9.2323756965393088e+01  9.3367494380152024e+01  9.2780489118183908e+01  9.2469040475014154e+01  9.3081646506712218e+01  9.2000154878318654e+01  9.1655425890763354e+01  9.1046523092690762e+01  9.0679579708791593e+01  8.9884122907876275e+01  9.1303153558146960e+01  9.0283147769324060e+01  9.4207640202986255e+01  9.4867896334145044e+01  9.4403292833668289e+01  9.4154534253220575e+01  9.4639893514238096e+01  9.3953689617515224e+01  9.3688413115217486e+01  9.3411510660175281e+01  9.5366208102230544e+01  9.5715355991041619e+01  9.5322564261381800e+01  9.5111191239330239e+01  9.5521777605910486e+01  9.5158308262086663e+01  9.4943615212141367e+01  9.4716681556138496e+01  9.5923118145908077e+01  9.5992519617374924e+01  9.5623607018039905e+01  9.5424753836932851e+01  9.5810458353713528e+01  9.5738168983220490e+01  9.5548216473020517e+01  9.5346223026618389e+01  9.1132405035043206e+01  9.2319265680366939e+01  9.1987663151811930e+01  9.1641522539922562e+01  9.1987663151587526e+01  9.0757624593396301e+01  8.9688813026383201e+01  8.9264679967267298e+01  9.3279130363310429e+01  9.4036177313610821e+01  9.3771013731150987e+01  9.3493973433519940e+01  9.3771013732489280e+01  9.2984119965523576e+01  9.2984119963454916e+01  9.2676020256313450e+01  9.4609061717496147e+01  9.5011210145017472e+01  9.4785739518514362e+01  9.4550040061472089e+01  9.4785739520946350e+01  9.4367063407601677e+01  9.4114144657353236e+01  9.5250797104261011e+01  9.5330875010234493e+01  9.5118708106108457e+01  9.4896873666410656e+01  9.5118708109530914e+01  9.5035292582420865e+01  9.5035292579115293e+01  9.4809978972139717e+01  9.2806096262906848e+01  9.2490104324952185e+01  9.4904758535849282e+01  9.4990188321894209e+01  9.4762511014854056e+01  9.4717500940373000e+01  9.4673517127657391e+01  9.6041352267155929e+01  9.6591015197582550e+01  9.5520858940791371e+01  9.5484656278656786e+01  9.7363971787289998e+01  9.7730848086603316e+01  9.7712523862452926e+01  9.6563489331121772e+01  9.6910693153918629e+01  9.6887195863492735e+01  9.6010220292189985e+01  9.7343242045730932e+01  9.4803288413816333e+01  9.5362920880799919e+01  9.5327645964055023e+01  9.3873249120607795e+01  9.4762362737091294e+01  9.3919590755545812e+01  9.7030592600353970e+01  9.7374378256153577e+01  9.6545873435479692e+01  9.6516958428260068e+01  9.8024041008189258e+01  9.8253208353666253e+01  9.8238590552463066e+01  9.7352411268685557e+01  9.7006135369460551e+01  9.8007764320202995e+01  9.6095719671386306e+01  9.6063537940728821e+01  9.7632919916018736e+01  9.7813621932057430e+01  9.7121730124423777e+01  9.7097167020472170e+01  9.8425488658654260e+01  9.8545861167136877e+01  9.8533452552970601e+01  9.7794970629753550e+01  9.7612892687632211e+01  9.8412164558651170e+01  9.6884740148131129e+01  9.6858370434710565e+01  9.7920979737862950e+01  9.7956815012531351e+01  9.7309620231393822e+01  9.7286515041909283e+01  9.8617367873320504e+01  9.8641230217493046e+01  9.8629558776685030e+01  9.7939273906357386e+01  9.7903163613690737e+01  9.8605516618660985e+01  9.7262597235737246e+01  9.7239130685845453e+01  9.3673109640172143e+01  9.4540250106253978e+01  9.3665555429284041e+01  9.3614257180565133e+01  9.4496092143345663e+01  9.3623227050820034e+01  9.2669388201163287e+01  9.2608460179083337e+01  9.2552030393508758e+01  9.1385015271657480e+01  9.2611485492644846e+01  9.1450449486310518e+01  9.5236515072645616e+01  9.5782692988743932e+01  9.5097836728540358e+01  9.5056764319326064e+01  9.5747383192658447e+01  9.5197235592907887e+01  9.4467523518426603e+01  9.4421858894939561e+01  9.6194353700820386e+01  9.6482519779470650e+01  9.5906982472719577e+01  9.5872039593471655e+01  9.6452503512479083e+01  9.6162138673806894e+01  9.5573611630007463e+01  9.5536121226053112e+01  9.6653892629682829e+01  9.6711122419200905e+01  9.6171642886135686e+01  9.6138757028222344e+01  9.6682881045861123e+01  9.6625211148003061e+01  9.6105377685579384e