<?xml version="1.0"?>
<VTKFile type="UnstructuredGrid"  version="0.1"  >
<UnstructuredGrid>
<Piece  NumberOfPoints="9261" NumberOfCells="48000">
<Points>
<DataArray  type="Float64"  NumberOfComponents="3"  format="ascii">0 0 0  0.5 0 0  1 0 0  1.5 0 0  2 0 0  2.5 0 0  3 0 0  3.5 0 0  4 0 0  4.5 0 0  5 0 0  0 0.5 0  0.5 0.5 0  1 0.5 0  1.5 0.5 0  2 0.5 0  2.5 0.5 0  3 0.5 0  3.5 0.5 0  4 0.5 0  4.5 0.5 0  5 0.5 0  0 1 0  0.5 1 0  1 1 0  1.5 1 0  2 1 0  2.5 1 0  3 1 0  3.5 1 0  4 1 0  4.5 1 0  5 1 0  0 1.5 0  0.5 1.5 0  1 1.5 0  1.5 1.5 0  2 1.5 0  2.5 1.5 0  3 1.5 0  3.5 1.5 0  4 1.5 0  4.5 1.5 0  5 1.5 0  0 2 0  0.5 2 0  1 2 0  1.5 2 0  2 2 0  2.5 2 0  3 2 0  3.5 2 0  4 2 0  4.5 2 0  5 2 0  0 2.5 0  0.5 2.5 0  1 2.5 0  1.5 2.5 0  2 2.5 0  2.5 2.5 0  3 2.5 0  3.5 2.5 0  4 2.5 0  4.5 2.5 0  5 2.5 0  0 3 0  0.5 3 0  1 3 0  1.5 3 0  2 3 0  2.5 3 0  3 3 0  3.5 3 0  4 3 0  4.5 3 0  5 3 0  0 3.5 0  0.5 3.5 0  1 3.5 0  1.5 3.5 0  2 3.5 0  2.5 3.5 0  3 3.5 0  3.5 3.5 0  4 3.5 0  4.5 3.5 0  5 3.5 0  0 4 0  0.5 4 0  1 4 0  1.5 4 0  2 4 0  2.5 4 0  3 4 0  3.5 4 0  4 4 0  4.5 4 0  5 4 0  0 4.5 0  0.5 4.5 0  1 4.5 0  1.5 4.5 0  2 4.5 0  2.5 4.5 0  3 4.5 0  3.5 4.5 0  4 4.5 0  4.5 4.5 0  5 4.5 0  0 5 0  0.5 5 0  1 5 0  1.5 5 0  2 5 0  2.5 5 0  3 5 0  3.5 5 0  4 5 0  4.5 5 0  5 5 0  0 0 0.5  0.5 0 0.5  1 0 0.5  1.5 0 0.5  2 0 0.5  2.5 0 0.5  3 0 0.5  3.5 0 0.5  4 0 0.5  4.5 0 0.5  5 0 0.5  0 0.5 0.5  0.5 0.5 0.5  1 0.5 0.5  1.5 0.5 0.5  2 0.5 0.5  2.5 0.5 0.5  3 0.5 0.5  3.5 0.5 0.5  4 0.5 0.5  4.5 0.5 0.5  5 0.5 0.5  0 1 0.5  0.5 1 0.5  1 1 0.5  1.5 1 0.5  2 1 0.5  2.5 1 0.5  3 1 0.5  3.5 1 0.5  4 1 0.5  4.5 1 0.5  5 1 0.5  0 1.5 0.5  0.5 1.5 0.5  1 1.5 0.5  1.5 1.5 0.5  2 1.5 0.5  2.5 1.5 0.5  3 1.5 0.5  3.5 1.5 0.5  4 1.5 0.5  4.5 1.5 0.5  5 1.5 0.5  0 2 0.5  0.5 2 0.5  1 2 0.5  1.5 2 0.5  2 2 0.5  2.5 2 0.5  3 2 0.5  3.5 2 0.5  4 2 0.5  4.5 2 0.5  5 2 0.5  0 2.5 0.5  0.5 2.5 0.5  1 2.5 0.5  1.5 2.5 0.5  2 2.5 0.5  2.5 2.5 0.5  3 2.5 0.5  3.5 2.5 0.5  4 2.5 0.5  4.5 2.5 0.5  5 2.5 0.5  0 3 0.5  0.5 3 0.5  1 3 0.5  1.5 3 0.5  2 3 0.5  2.5 3 0.5  3 3 0.5  3.5 3 0.5  4 3 0.5  4.5 3 0.5  5 3 0.5  0 3.5 0.5  0.5 3.5 0.5  1 3.5 0.5  1.5 3.5 0.5  2 3.5 0.5  2.5 3.5 0.5  3 3.5 0.5  3.5 3.5 0.5  4 3.5 0.5  4.5 3.5 0.5  5 3.5 0.5  0 4 0.5  0.5 4 0.5  1 4 0.5  1.5 4 0.5  2 4 0.5  2.5 4 0.5  3 4 0.5  3.5 4 0.5  4 4 0.5  4.5 4 0.5  5 4 0.5  0 4.5 0.5  0.5 4.5 0.5  1 4.5 0.5  1.5 4.5 0.5  2 4.5 0.5  2.5 4.5 0.5  3 4.5 0.5  3.5 4.5 0.5  4 4.5 0.5  4.5 4.5 0.5  5 4.5 0.5  0 5 0.5  0.5 5 0.5  1 5 0.5  1.5 5 0.5  2 5 0.5  2.5 5 0.5  3 5 0.5  3.5 5 0.5  4 5 0.5  4.5 5 0.5  5 5 0.5  0 0 1  0.5 0 1  1 0 1  1.5 0 1  2 0 1  2.5 0 1  3 0 1  3.5 0 1  4 0 1  4.5 0 1  5 0 1  0 0.5 1  0.5 0.5 1  1 0.5 1  1.5 0.5 1  2 0.5 1  2.5 0.5 1  3 0.5 1  3.5 0.5 1  4 0.5 1  4.5 0.5 1  5 0.5 1  0 1 1  0.5 1 1  1 1 1  1.5 1 1  2 1 1  2.5 1 1  3 1 1  3.5 1 1  4 1 1  4.5 1 1  5 1 1  0 1.5 1  0.5 1.5 1  1 1.5 1  1.5 1.5 1  2 1.5 1  2.5 1.5 1  3 1.5 1  3.5 1.5 1  4 1.5 1  4.5 1.5 1  5 1.5 1  0 2 1  0.5 2 1  1 2 1  1.5 2 1  2 2 1  2.5 2 1  3 2 1  3.5 2 1  4 2 1  4.5 2 1  5 2 1  0 2.5 1  0.5 2.5 1  1 2.5 1  1.5 2.5 1  2 2.5 1  2.5 2.5 1  3 2.5 1  3.5 2.5 1  4 2.5 1  4.5 2.5 1  5 2.5 1  0 3 1  0.5 3 1  1 3 1  1.5 3 1  2 3 1  2.5 3 1  3 3 1  3.5 3 1  4 3 1  4.5 3 1  5 3 1  0 3.5 1  0.5 3.5 1  1 3.5 1  1.5 3.5 1  2 3.5 1  2.5 3.5 1  3 3.5 1  3.5 3.5 1  4 3.5 1  4.5 3.5 1  5 3.5 1  0 4 1  0.5 4 1  1 4 1  1.5 4 1  2 4 1  2.5 4 1  3 4 1  3.5 4 1  4 4 1  4.5 4 1  5 4 1  0 4.5 1  0.5 4.5 1  1 4.5 1  1.5 4.5 1  2 4.5 1  2.5 4.5 1  3 4.5 1  3.5 4.5 1  4 4.5 1  4.5 4.5 1  5 4.5 1  0 5 1  0.5 5 1  1 5 1  1.5 5 1  2 5 1  2.5 5 1  3 5 1  3.5 5 1  4 5 1  4.5 5 1  5 5 1  0 0 1.5  0.5 0 1.5  1 0 1.5  1.5 0 1.5  2 0 1.5  2.5 0 1.5  3 0 1.5  3.5 0 1.5  4 0 1.5  4.5 0 1.5  5 0 1.5  0 0.5 1.5  0.5 0.5 1.5  1 0.5 1.5  1.5 0.5 1.5  2 0.5 1.5  2.5 0.5 1.5  3 0.5 1.5  3.5 0.5 1.5  4 0.5 1.5  4.5 0.5 1.5  5 0.5 1.5  0 1 1.5  0.5 1 1.5  1 1 1.5  1.5 1 1.5  2 1 1.5  2.5 1 1.5  3 1 1.5  3.5 1 1.5  4 1 1.5  4.5 1 1.5  5 1 1.5  0 1.5 1.5  0.5 1.5 1.5  1 1.5 1.5  1.5 1.5 1.5  2 1.5 1.5  2.5 1.5 1.5  3 1.5 1.5  3.5 1.5 1.5  4 1.5 1.5  4.5 1.5 1.5  5 1.5 1.5  0 2 1.5  0.5 2 1.5  1 2 1.5  1.5 2 1.5  2 2 1.5  2.5 2 1.5  3 2 1.5  3.5 2 1.5  4 2 1.5  4.5 2 1.5  5 2 1.5  0 2.5 1.5  0.5 2.5 1.5  1 2.5 1.5  1.5 2.5 1.5  2 2.5 1.5  2.5 2.5 1.5  3 2.5 1.5  3.5 2.5 1.5  4 2.5 1.5  4.5 2.5 1.5  5 2.5 1.5  0 3 1.5  0.5 3 1.5  1 3 1.5  1.5 3 1.5  2 3 1.5  2.5 3 1.5  3 3 1.5  3.5 3 1.5  4 3 1.5  4.5 3 1.5  5 3 1.5  0 3.5 1.5  0.5 3.5 1.5  1 3.5 1.5  1.5 3.5 1.5  2 3.5 1.5  2.5 3.5 1.5  3 3.5 1.5  3.5 3.5 1.5  4 3.5 1.5  4.5 3.5 1.5  5 3.5 1.5  0 4 1.5  0.5 4 1.5  1 4 1.5  1.5 4 1.5  2 4 1.5  2.5 4 1.5  3 4 1.5  3.5 4 1.5  4 4 1.5  4.5 4 1.5  5 4 1.5  0 4.5 1.5  0.5 4.5 1.5  1 4.5 1.5  1.5 4.5 1.5  2 4.5 1.5  2.5 4.5 1.5  3 4.5 1.5  3.5 4.5 1.5  4 4.5 1.5  4.5 4.5 1.5  5 4.5 1.5  0 5 1.5  0.5 5 1.5  1 5 1.5  1.5 5 1.5  2 5 1.5  2.5 5 1.5  3 5 1.5  3.5 5 1.5  4 5 1.5  4.5 5 1.5  5 5 1.5  0 0 2  0.5 0 2  1 0 2  1.5 0 2  2 0 2  2.5 0 2  3 0 2  3.5 0 2  4 0 2  4.5 0 2  5 0 2  0 0.5 2  0.5 0.5 2  1 0.5 2  1.5 0.5 2  2 0.5 2  2.5 0.5 2  3 0.5 2  3.5 0.5 2  4 0.5 2  4.5 0.5 2  5 0.5 2  0 1 2  0.5 1 2  1 1 2  1.5 1 2  2 1 2  2.5 1 2  3 1 2  3.5 1 2  4 1 2  4.5 1 2  5 1 2  0 1.5 2  0.5 1.5 2  1 1.5 2  1.5 1.5 2  2 1.5 2  2.5 1.5 2  3 1.5 2  3.5 1.5 2  4 1.5 2  4.5 1.5 2  5 1.5 2  0 2 2  0.5 2 2  1 2 2  1.5 2 2  2 2 2  2.5 2 2  3 2 2  3.5 2 2  4 2 2  4.5 2 2  5 2 2  0 2.5 2  0.5 2.5 2  1 2.5 2  1.5 2.5 2  2 2.5 2  2.5 2.5 2  3 2.5 2  3.5 2.5 2  4 2.5 2  4.5 2.5 2  5 2.5 2  0 3 2  0.5 3 2  1 3 2  1.5 3 2  2 3 2  2.5 3 2  3 3 2  3.5 3 2  4 3 2  4.5 3 2  5 3 2  0 3.5 2  0.5 3.5 2  1 3.5 2  1.5 3.5 2  2 3.5 2  2.5 3.5 2  3 3.5 2  3.5 3.5 2  4 3.5 2  4.5 3.5 2  5 3.5 2  0 4 2  0.5 4 2  1 4 2  1.5 4 2  2 4 2  2.5 4 2  3 4 2  3.5 4 2  4 4 2  4.5 4 2  5 4 2  0 4.5 2  0.5 4.5 2  1 4.5 2  1.5 4.5 2  2 4.5 2  2.5 4.5 2  3 4.5 2  3.5 4.5 2  4 4.5 2  4.5 4.5 2  5 4.5 2  0 5 2  0.5 5 2  1 5 2  1.5 5 2  2 5 2  2.5 5 2  3 5 2  3.5 5 2  4 5 2  4.5 5 2  5 5 2  0 0 2.5  0.5 0 2.5  1 0 2.5  1.5 0 2.5  2 0 2.5  2.5 0 2.5  3 0 2.5  3.5 0 2.5  4 0 2.5  4.5 0 2.5  5 0 2.5  0 0.5 2.5  0.5 0.5 2.5  1 0.5 2.5  1.5 0.5 2.5  2 0.5 2.5  2.5 0.5 2.5  3 0.5 2.5  3.5 0.5 2.5  4 0.5 2.5  4.5 0.5 2.5  5 0.5 2.5  0 1 2.5  0.5 1 2.5  1 1 2.5  1.5 1 2.5  2 1 2.5  2.5 1 2.5  3 1 2.5  3.5 1 2.5  4 1 2.5  4.5 1 2.5  5 1 2.5  0 1.5 2.5  0.5 1.5 2.5  1 1.5 2.5  1.5 1.5 2.5  2 1.5 2.5  2.5 1.5 2.5  3 1.5 2.5  3.5 1.5 2.5  4 1.5 2.5  4.5 1.5 2.5  5 1.5 2.5  0 2 2.5  0.5 2 2.5  1 2 2.5  1.5 2 2.5  2 2 2.5  2.5 2 2.5  3 2 2.5  3.5 2 2.5  4 2 2.5  4.5 2 2.5  5 2 2.5  0 2.5 2.5  0.5 2.5 2.5  1 2.5 2.5  1.5 2.5 2.5  2 2.5 2.5  2.5 2.5 2.5  3 2.5 2.5  3.5 2.5 2.5  4 2.5 2.5  4.5 2.5 2.5  5 2.5 2.5  0 3 2.5  0.5 3 2.5  1 3 2.5  1.5 3 2.5  2 3 2.5  2.5 3 2.5  3 3 2.5  3.5 3 2.5  4 3 2.5  4.5 3 2.5  5 3 2.5  0 3.5 2.5  0.5 3.5 2.5  1 3.5 2.5  1.5 3.5 2.5  2 3.5 2.5  2.5 3.5 2.5  3 3.5 2.5  3.5 3.5 2.5  4 3.5 2.5  4.5 3.5 2.5  5 3.5 2.5  0 4 2.5  0.5 4 2.5  1 4 2.5  1.5 4 2.5  2 4 2.5  2.5 4 2.5  3 4 2.5  3.5 4 2.5  4 4 2.5  4.5 4 2.5  5 4 2.5  0 4.5 2.5  0.5 4.5 2.5  1 4.5 2.5  1.5 4.5 2.5  2 4.5 2.5  2.5 4.5 2.5  3 4.5 2.5  3.5 4.5 2.5  4 4.5 2.5  4.5 4.5 2.5  5 4.5 2.5  0 5 2.5  0.5 5 2.5  1 5 2.5  1.5 5 2.5  2 5 2.5  2.5 5 2.5  3 5 2.5  3.5 5 2.5  4 5 2.5  4.5 5 2.5  5 5 2.5  0 0 3  0.5 0 3  1 0 3  1.5 0 3  2 0 3  2.5 0 3  3 0 3  3.5 0 3  4 0 3  4.5 0 3  5 0 3  0 0.5 3  0.5 0.5 3  1 0.5 3  1.5 0.5 3  2 0.5 3  2.5 0.5 3  3 0.5 3  3.5 0.5 3  4 0.5 3  4.5 0.5 3  5 0.5 3  0 1 3  0.5 1 3  1 1 3  1.5 1 3  2 1 3  2.5 1 3  3 1 3  3.5 1 3  4 1 3  4.5 1 3  5 1 3  0 1.5 3  0.5 1.5 3  1 1.5 3  1.5 1.5 3  2 1.5 3  2.5 1.5 3  3 1.5 3  3.5 1.5 3  4 1.5 3  4.5 1.5 3  5 1.5 3  0 2 3  0.5 2 3  1 2 3  1.5 2 3  2 2 3  2.5 2 3  3 2 3  3.5 2 3  4 2 3  4.5 2 3  5 2 3  0 2.5 3  0.5 2.5 3  1 2.5 3  1.5 2.5 3  2 2.5 3  2.5 2.5 3  3 2.5 3  3.5 2.5 3  4 2.5 3  4.5 2.5 3  5 2.5 3  0 3 3  0.5 3 3  1 3 3  1.5 3 3  2 3 3  2.5 3 3  3 3 3  3.5 3 3  4 3 3  4.5 3 3  5 3 3  0 3.5 3  0.5 3.5 3  1 3.5 3  1.5 3.5 3  2 3.5 3  2.5 3.5 3  3 3.5 3  3.5 3.5 3  4 3.5 3  4.5 3.5 3  5 3.5 3  0 4 3  0.5 4 3  1 4 3  1.5 4 3  2 4 3  2.5 4 3  3 4 3  3.5 4 3  4 4 3  4.5 4 3  5 4 3  0 4.5 3  0.5 4.5 3  1 4.5 3  1.5 4.5 3  2 4.5 3  2.5 4.5 3  3 4.5 3  3.5 4.5 3  4 4.5 3  4.5 4.5 3  5 4.5 3  0 5 3  0.5 5 3  1 5 3  1.5 5 3  2 5 3  2.5 5 3  3 5 3  3.5 5 3  4 5 3  4.5 5 3  5 5 3  0 0 3.5  0.5 0 3.5  1 0 3.5  1.5 0 3.5  2 0 3.5  2.5 0 3.5  3 0 3.5  3.5 0 3.5  4 0 3.5  4.5 0 3.5  5 0 3.5  0 0.5 3.5  0.5 0.5 3.5  1 0.5 3.5  1.5 0.5 3.5  2 0.5 3.5  2.5 0.5 3.5  3 0.5 3.5  3.5 0.5 3.5  4 0.5 3.5  4.5 0.5 3.5  5 0.5 3.5  0 1 3.5  0.5 1 3.5  1 1 3.5  1.5 1 3.5  2 1 3.5  2.5 1 3.5  3 1 3.5  3.5 1 3.5  4 1 3.5  4.5 1 3.5  5 1 3.5  0 1.5 3.5  0.5 1.5 3.5  1 1.5 3.5  1.5 1.5 3.5  2 1.5 3.5  2.5 1.5 3.5  3 1.5 3.5  3.5 1.5 3.5  4 1.5 3.5  4.5 1.5 3.5  5 1.5 3.5  0 2 3.5  0.5 2 3.5  1 2 3.5  1.5 2 3.5  2 2 3.5  2.5 2 3.5  3 2 3.5  3.5 2 3.5  4 2 3.5  4.5 2 3.5  5 2 3.5  0 2.5 3.5  0.5 2.5 3.5  1 2.5 3.5  1.5 2.5 3.5  2 2.5 3.5  2.5 2.5 3.5  3 2.5 3.5  3.5 2.5 3.5  4 2.5 3.5  4.5 2.5 3.5  5 2.5 3.5  0 3 3.5  0.5 3 3.5  1 3 3.5  1.5 3 3.5  2 3 3.5  2.5 3 3.5  3 3 3.5  3.5 3 3.5  4 3 3.5  4.5 3 3.5  5 3 3.5  0 3.5 3.5  0.5 3.5 3.5  1 3.5 3.5  1.5 3.5 3.5  2 3.5 3.5  2.5 3.5 3.5  3 3.5 3.5  3.5 3.5 3.5  4 3.5 3.5  4.5 3.5 3.5  5 3.5 3.5  0 4 3.5  0.5 4 3.5  1 4 3.5  1.5 4 3.5  2 4 3.5  2.5 4 3.5  3 4 3.5  3.5 4 3.5  4 4 3.5  4.5 4 3.5  5 4 3.5  0 4.5 3.5  0.5 4.5 3.5  1 4.5 3.5  1.5 4.5 3.5  2 4.5 3.5  2.5 4.5 3.5  3 4.5 3.5  3.5 4.5 3.5  4 4.5 3.5  4.5 4.5 3.5  5 4.5 3.5  0 5 3.5  0.5 5 3.5  1 5 3.5  1.5 5 3.5  2 5 3.5  2.5 5 3.5  3 5 3.5  3.5 5 3.5  4 5 3.5  4.5 5 3.5  5 5 3.5  0 0 4  0.5 0 4  1 0 4  1.5 0 4  2 0 4  2.5 0 4  3 0 4  3.5 0 4  4 0 4  4.5 0 4  5 0 4  0 0.5 4  0.5 0.5 4  1 0.5 4  1.5 0.5 4  2 0.5 4  2.5 0.5 4  3 0.5 4  3.5 0.5 4  4 0.5 4  4.5 0.5 4  5 0.5 4  0 1 4  0.5 1 4  1 1 4  1.5 1 4  2 1 4  2.5 1 4  3 1 4  3.5 1 4  4 1 4  4.5 1 4 
[...]
<PointData  Scalars="p_O2"> 
<DataArray  type="Float64"  Name="p_O2"  format="ascii">4.0000000000000000e+01  8.8163504244098050e+01  9.4693067941629877e+01  9.7057040565060106e+01  9.8185131055590148e+01  9.8807657192785186e+01  9.9180472033514292e+01  9.9411942922327199e+01  9.9553675576824730e+01  9.9631355810184431e+01  9.9656422736297941e+01  4.0000000000000000e+01  8.0567586219806827e+01  9.0312579472445790e+01  9.4409483746334502e+01  9.6486643723304311e+01  9.7668456089769705e+01  9.8388314937222262e+01  9.8839646536012339e+01  9.9117563017600006e+01  9.9270350640599190e+01  9.9319722008824868e+01  4.0000000000000000e+01  7.8214251645753507e+01  8.7964283792216548e+01  9.2631318809337245e+01  9.5213888722570502e+01  9.6763302994181487e+01  9.7737662954289561e+01  9.8360339554175027e+01  9.8748086980551165e+01  9.8962576550188203e+01  9.9032075778040593e+01  4.0000000000000000e+01  7.7377755566867350e+01  8.6833703654773075e+01  9.1591637656422733e+01  9.4380594024849216e+01  9.6130398356305051e+01  9.7264716605292563e+01  9.8003767370368067e+01  9.8469399098988603e+01  9.8728664609705703e+01  9.8812917684409612e+01  4.0000000000000000e+01  7.7048631815768161e+01  8.6325103527005112e+01  9.1065065779952533e+01  9.3922166615089097e+01  9.5763295198099911e+01  9.6981248711375059e+01  9.7785711644026279e+01  9.8296896130563070e+01  9.8582908740120857e+01  9.8676056131107302e+01  4.0000000000000000e+01  7.6958693625492501e+01  8.6178752880330165e+01  9.0905211143452831e+01  9.3777056581491053e+01  9.5643717166593049e+01  9.6887195836142467e+01  9.7712523793818960e+01  9.8238590445866123e+01  9.8533452419463131e+01  9.8629558632522389e+01  4.0000000000000000e+01  7.7048631815014929e+01  8.6325103525557978e+01  9.1065065777975107e+01  9.3922166612855662e+01  9.5763295196061421e+01  9.6981248709939067e+01  9.7785711643394350e+01  9.8296896130773263e+01  9.8582908740969430e+01  9.8676056132192073e+01  4.0000000000000000e+01  7.7377755565552675e+01  8.6833703652243230e+01  9.1591637652946957e+01  9.4380594021025374e+01  9.6130398352788902e+01  9.7264716602728697e+01  9.8003767369262519e+01  9.8469399099358313e+01  9.8728664611184257e+01  9.8812917686281253e+01  4.0000000000000000e+01  7.8214251644228966e+01  8.7964283789256939e+01  9.2631318805364913e+01  9.5213888718196074e+01  9.6763302990139309e+01  9.7737662951318669e+01  9.8360339552818260e+01  9.8748086980982933e+01  9.8962576551882876e+01  9.9032075780187711e+01  4.0000000000000000e+01  8.0567586218485303e+01  9.0312579469937617e+01  9.4409483742974174e+01  9.6486643719593800e+01  9.7668456086336846e+01  9.8388314934691763e+01  9.8839646534831488e+01  9.9117563017886354e+01  9.9270350642076508e+01  9.9319722010656321e+01  4.0000000000000000e+01  8.8163504243404773e+01  9.4693067940309319e+01  9.7057040563283593e+01  9.8185131053629092e+01  9.8807657190976144e+01  9.9180472032193649e+01  9.9411942921733768e+01  9.9553675577016818e+01  9.9631355811002464e+01  9.9656422737344457e+01  4.0000000000000000e+01  8.0567586219830403e+01  9.0312579472482867e+01  9.4409483746381710e+01  9.6486643723339839e+01  9.7668456089786545e+01  9.8388314937210609e+01  9.8839646535974083e+01  9.9117563017521164e+01  9.9270350640499572e+01  9.9319722008704858e+01  4.0000000000000000e+01  6.7703345055645059e+01  8.2253328492161629e+01  8.9366203801962655e+01  9.3194948922044730e+01  9.5439815970055037e+01  9.6830191883501044e+01  9.7710346648764187e+01  9.8255335684341034e+01  9.8555860365499825e+01  9.8653104039675981e+01  4.0000000000000000e+01  6.3430478860557990e+01  7.7838051892305273e+01  8.5950752192201932e+01  9.0719506106232103e+01  9.3666152259549378e+01  9.5549410428468022e+01  9.6764187234961298e+01  9.7524717755123618e+01  9.7946660144418061e+01  9.8083560605328984e+01  4.0000000000000000e+01  6.1848492822832398e+01  7.5672430688241235e+01  8.3936948558692691e+01  8.9092502660541101e+01  9.2423706195675209e+01  9.4617637615361801e+01  9.6060028910306613e+01  9.6973530683334062e+01  9.7483624893876467e+01  9.7649603575703580e+01  4.0000000000000000e+01  6.1214323366281327e+01  7.4687173487966504e+01  8.2910865176077820e+01  8.8194696376824155e+01  9.1701966073009444e+01  9.4058758034190831e+01  9.5629265228355266e+01  9.6632302836260720e+01  9.7195077442901791e+01  9.7378591126667843e+01  4.0000000000000000e+01  6.1039749637612537e+01  7.4402229986201760e+01  8.2598440436263445e+01  8.7910046395891470e+01  9.1466675370777750e+01  9.3873249071127887e+01  9.5484656144910872e+01  9.6516958215549295e+01  9.7097166756217902e+01  9.7286514761624687e+01  4.0000000000000000e+01  6.1214323364833831e+01  7.4687173485182896e+01  8.2910865172276701e+01  8.8194696372537479e+01  9.1701966069079944e+01  9.4058758031393737e+01  9.5629265227098330e+01  9.6632302836642765e+01  9.7195077444533808e+01  9.7378591128735124e+01  4.0000000000000000e+01  6.1848492820312487e+01  7.5672430683374429e+01  8.3936948552004566e+01  8.9092502653166918e+01  9.2423706188884594e+01  9.4617637610382218e+01  9.6060028908140012e+01  9.6973530684015643e+01  9.7483624896700761e+01  9.7649603579301200e+01  4.0000000000000000e+01  6.3430478857630774e+01  7.7838051886619880e+01  8.5950752184555071e+01  9.0719506097786891e+01  9.3666152251725677e+01  9.5549410422697648e+01  9.6764187232296706e+01  9.7524717755896489e+01  9.7946660147671437e+01  9.8083560609468833e+01  4.0000000000000000e+01  6.7703345053105338e+01  8.2253328487343197e+01  8.9366203795488701e+01  9.3194948914880669e+01  9.5439815963423555e+01  9.6830191878595784e+01  9.7710346646466263e+01  9.8255335684903784e+01  9.8555860368340859e+01  9.8653104043296381e+01  4.0000000000000000e+01  8.0567586218479093e+01  9.0312579469914525e+01  9.4409483742922674e+01  9.6486643719524380e+01  9.7668456086256583e+01  9.8388314934607891e+01  9.8839646534765592e+01  9.9117563017854252e+01  9.9270350642071548e+01  9.9319722010655553e+01  4.0000000000000000e+01  7.8214251645856834e+01  8.7964283792402867e+01  9.2631318809551956e+01  9.5213888722756877e+01  9.6763302994282526e+01  9.7737662954261481e+01  9.8360339553996070e+01  9.8748086980216570e+01  9.8962576549720310e+01  9.9032075777540257e+01  4.0000000000000000e+01  6.3430478860691011e+01  7.7838051892538857e+01  8.5950752192471583e+01  9.0719506106462688e+01  9.3666152259660734e+01  9.5549410428393486e+01  9.6764187234682097e+01  9.7524717754647028e+01  9.7946660143767076e+01  9.8083560604619294e+01  4.0000000000000000e+01  5.8144211155999514e+01  7.2110849982384437e+01  8.1362320332911580e+01  8.7317698691353655e+01  9.1193802484380384e+01  9.3748092248859095e+01  9.5426000803941122e+01  9.6487776304194583e+01  9.7080341537006547e+01  9.7273105647628341e+01  4.0000000000000000e+01  5.6072030293601749e+01  6.9215131440465072e+01  7.8616123083994751e+01  8.5065522755433420e+01  8.9455831264788628e+01  9.2435421191372143e+01  9.4429301350245012e+01  9.5705219041307672e+01  9.6421776200145530e+01  9.6655529165990316e+01  4.0000000000000000e+01  5.5215321570860375e+01  6.7871331279139099e+01  7.7201255094836597e+01  8.3815495872539827e+01  8.8443276521843799e+01  9.1646946512815617e+01  9.3819162753818588e+01  9.5220605940188946e+01  9.6011325433929954e+01  9.6269810798785002e+01  4.0000000000000000e+01  5.4976383053338438e+01  6.7479081704601271e+01  7.6768020621858085e+01  8.3417937147268972e+01  8.8112641604164793e+01  9.1385015214197125e+01  9.3614257000782402e+01  9.5056764025206377e+01  9.5872039221486347e+01  9.6138756638018265e+01  4.0000000000000000e+01  5.5215321568984358e+01  6.7871331275526359e+01  7.7201255089903341e+01  8.3815495866995064e+01  8.8443276516714093e+01  9.1646946509107664e+01  9.3819162752133366e+01  9.5220605940659667e+01  9.6011325436066628e+01  9.6269810801500753e+01  4.0000000000000000e+01  5.6072030290338169e+01  6.9215131434155879e+01  7.8616123075339530e+01  8.5065522745849933e+01  8.9455831255903618e+01  9.2435421184815809e+01  9.4429301347318770e+01  9.5705219042141721e+01  9.6421776203846704e+01  9.6655529170704099e+01  4.0000000000000000e+01  5.8144211152203845e+01  7.2110849975015356e+01  8.1362320322961580e+01  8.7317698680345714e+01  9.1193802474140398e+01  9.3748092241288020e+01  9.5426000800448023e+01  9.6487776305204932e+01  9.7080341541332800e+01  9.7273105653136454e+01  4.0000000000000000e+01  6.3430478857402889e+01  7.7838051886282642e+01  8.5950752184041676e+01  9.0719506097100194e+01  9.3666152250955477e+01  9.5549410421944344e+01  9.6764187231681220e+01  9.7524717755487032e+01  9.7946660147453485e+01  9.8083560609329936e+01  4.0000000000000000e+01  7.8214251644089359e+01  8.7964283789057475e+01  9.2631318805034397e+01  9.5213888717744695e+01  9.6763302989626041e+01  9.7737662950814595e+01  9.8360339552413322e+01  9.8748086980725091e+01  9.8962576551763178e+01  9.9032075780102517e+01  4.0000000000000000e+01  7.7377755567104700e+01  8.6833703655194498e+01  9.1591637656919517e+01  9.4380594025281866e+01  9.6130398356531543e+01  9.7264716605209586e+01  9.8003767369907720e+01  9.8469399098186756e+01  9.8728664608659969e+01  9.8812917683314339e+01  4.0000000000000000e+01  6.1848492823220518e+01  7.5672430688928955e+01  8.3936948559507044e+01  8.9092502661242548e+01  9.2423706196035539e+01  9.4617637615192635e+01  9.6060028909550184e+01  9.6973530682011500e+01  9.7483624892143538e+01  9.7649603573871758e+01  4.0000000000000000e+01  5.6072030293921927e+01  6.9215131441034345e+01  7.8616123084672893e+01  8.5065522756021721e+01  8.9455831265102063e+01  9.2435421191245041e+01  9.4429301349624268e+01  9.5705219040261611e+01  9.6421776198807308e+01  9.6655529164504259e+01  4.0000000000000000e+01  5.3718078480511352e+01  6.5870814009136666e+01  7.5388892289477354e+01  8.2380787084813974e+01  8.7362142629022159e+01  9.0842413003101584e+01  9.3213709219563896e+01  9.4747693289238711e+01  9.5614437609631139e+01  9.5897953847520768e+01  4.0000000000000000e+01  5.2720131829440746e+01  6.4291762964668109e+01  7.3708901775458912e+01  8.0882165162701654e+01  8.6138711854860091e+01  8.9884122849188984e+01  9.2469040274364900e+01  9.4154533920913295e+01  9.5111190817793286e+01  9.5424753386928330e+01  4.0000000000000000e+01  5.2438534082157268e+01  6.3826885266649008e+01  7.3191694008487261e+01  8.0404062045059433e+01  8.5738553811732714e+01  8.9565509307162515e+01  9.2218851829817865e+01  9.3953956010631885e+01  9.4940399945417667e+01  9.5263967174766563e+01  4.0000000000000000e+01  5.2720131827468357e+01  6.4291762960863679e+01  7.3708901770268938e+01  8.0882165156866535e+01  8.6138711849454666e+01  8.9884122845258091e+01  9.2469040272613540e+01  9.4154533921558979e+01  9.5111190820264568e+01  9.5424753390095802e+01  4.0000000000000000e+01  5.3718078477081654e+01  6.5870814002510485e+01  7.5388892280375742e+01  8.2380787074719052e+01  8.7362142619639044e+01  9.0842412996220901e+01  9.3213709216609018e+01  9.4747693290386820e+01  9.5614437613948724e+01  9.5897953853000402e+01  4.0000000000000000e+01  5.6072030289942482e+01  6.9215131433256616e+01  7.8616123074206200e+01  8.5065522744389284e+01  8.9455831254278394e+01  9.2435421183312187e+01  9.4429301346181205e+01  9.5705219041545647e+01  9.6421776203722231e+01  9.6655529170766826e+01  4.0000000000000000e+01  6.1848492819759997e+01  7.5672430682354417e+01  8.3936948550607013e+01  8.9092502651341803e+01  9.2423706186827914e+01  9.4617637608428794e+01  9.6060028906633619e+01  9.6973530683146194e+01  9.7483624896394645e+01  9.7649603579225086e+01  4.0000000000000000e+01  7.7377755565255612e+01  8.6833703651670746e+01  9.1591637652143746e+01  9.4380594019978133e+01  9.6130398351589221e+01  9.7264716601591104e+01  9.8003767368397988e+01  9.8469399098864230e+01  9.8728664611021898e+01  9.8812917686237896e+01  4.0000000000000000e+01  7.7048631816194089e+01  8.6325103527764185e+01  9.1065065780858717e+01  9.3922166615890816e+01  9.5763295198550836e+01  9.6981248711270908e+01  9.7785711643290085e+01  9.8296896129238505e+01  9.8582908738404925e+01  9.8676056129306815e+01  4.0000000000000000e+01  6.1214323367033295e+01  7.4687173489315782e+01  8.2910865177690567e+01  8.8194696378251294e+01  9.1701966073808322e+01  9.4058758034022802e+01  9.5629265227065844e+01  9.6632302833934787e+01  9.7195077439889289e+01  9.7378591123482707e+01  4.0000000000000000e+01  5.5215321571677109e+01  6.7871331280601993e+01  7.7201255096586394e+01  8.3815495874107526e+01  8.8443276522759163e+01  9.1646946512707416e+01  9.3819162752540066e+01  9.5220605937826207e+01  9.6011325430845318e+01  9.6269810795522872e+01  4.0000000000000000e+01  5.2720131829989704e+01  6.4291762965660254e+01  7.3708901776655665e+01  8.0882165163791939e+01  8.6138711855526665e+01  8.9884122849194853e+01  9.2469040273576709e+01  9.4154533919450358e+01  9.5111190815848886e+01  9.5424753384880319e+01  4.0000000000000000e+01  5.1646500858050644e+01  6.2583348512413011e+01  7.1878488328585533e+01  7.9238351535501664e+01  8.4789210743342892e+01  8.8822531230847460e+01  9.1641522325589278e+01  9.3493973070277463e+01  9.4550039594856372e+01  9.4896873175445748e+01  4.0000000000000000e+01  5.1341302370384035e+01  6.2077574485138989e+01  7.1312907100684114e+01  7.8712792291233001e+01  8.4347292866940862e+01  8.8469354364570862e+01  9.1363414729283164e+01  9.3270571951957109e+01  9.4359585245212713e+01  9.4717500457750660e+01  4.0000000000000000e+01  5.1646500856325389e+01  6.2583348509069232e+01  7.1878488324014782e+01  7.9238351530393246e+01  8.4789210738603416e+01  8.8822531227450810e+01  9.1641522324341594e+01  9.3493973071368657e+01  9.4550039597765107e+01  9.4896873178956241e+01  4.0000000000000000e+01  5.2720131826984129e+01  6.4291762959833775e+01  7.3708901768641468e+01  8.0882165154882955e+01  8.6138711847289656e+01  8.9884122843361652e+01  9.2469040271425158e+01  9.4154533921296959e+01  9.5111190820810577e+01  9.5424753390917957e+01  4.0000000000000000e+01  5.5215321568170133e+01  6.7871331273768689e+01  7.7201255087344876e+01  8.3815495863823998e+01  8.8443276513274270e+01  9.1646946506025060e+01  9.3819162750087031e+01  9.5220605939986655e+01  9.6011325436556646e+01  9.6269810802461990e+01  4.0000000000000000e+01  6.1214323363987752e+01  7.4687173483513163e+01  8.2910865169812837e+01  8.8194696369492448e+01  9.1701966065748479e+01  9.4058758028374754e+01  9.5629265225036079e+01  9.6632302835822699e+01  9.7195077444806927e+01  9.7378591129441602e+01  4.0000000000000000e+01  7.7048631814564530e+01  8.6325103524650530e+01  9.1065065776627421e+01  9.3922166611191841e+01  9.5763295194227098e+01  9.6981248708287893e+01  9.7785711642249481e+01  9.8296896130323333e+01  9.8582908741132201e+01  9.8676056132571858e+01  4.0000000000000000e+01  7.6958693626132288e+01  8.6178752881471965e+01  9.0905211144829224e+01  9.3777056582742702e+01  9.5643717167344818e+01  9.6887195836116589e+01  9.7712523792906708e+01  9.8238590444143952e+01  9.8533452417196230e+01  9.8629558630116691e+01  4.0000000000000000e+01  6.1039749638786191e+01  7.4402229988309543e+01  8.2598440438808197e+01  8.7910046398204813e+01  9.1466675372205927e+01  9.3873249071139384e+01  9.5484656143282251e+01  9.6516958212439761e+01  9.7097166752099852e+01  9.7286514757238521e+01  4.0000000000000000e+01  5.4976383054729425e+01  6.7479081707105379e+01  7.6768020624885196e+01  8.3417937150049426e+01  8.8112641605923940e+01  9.1385015214314066e+01  9.3614256999011758e+01  9.5056764021716944e+01  9.5872039216810450e+01  9.6138756633019298e+01  4.0000000000000000e+01  5.2438534083391886e+01  6.3826885268878925e+01  7.3191694011198081e+01  8.0404062047579671e+01  8.5738553813375120e+01  8.9565509307390926e+01  9.2218851828417058e+01  9.3953956007744509e+01  9.4940399941495130e+01  9.5263967170573736e+01  4.0000000000000000e+01  5.1341302371113883e+01  6.2077574486463845e+01  7.1312907102307150e+01  7.8712792292752567e+01  8.4347292867975483e+01  8.8469354364796061e+01  9.1363414728559462e+01  9.3270571950389893e+01  9.4359585243049793e+01  9.4717500455466123e+01  4.0000000000000000e+01  5.1028624838221994e+01  6.1558711669028597e+01  7.0731642861626838e+01  7.8171647049913332e+01  8.3891505828289667e+01  8.8104597321823491e+01  9.1075892452039369e+01  9.3039440167994272e+01  9.4162452551574404e+01  9.4531809337880688e+01  4.0000000000000000e+01  5.1341302369890848e+01  6.2077574484084849e+01  7.1312907099055735e+01  7.8712792289159665e+01  8.4347292864666883e+01  8.8469354362716913e+01  9.1363414728366521e+01  9.3270571952268313e+01  9.4359585246515863e+01  9.4717500459475588e+01  4.0000000000000000e+01  5.2438534081258403e+01  6.3826885264723778e+01  7.3191694005494668e+01  8.0404062041258825e+01  8.5738553807699745e+01  8.9565509303821941e+01  9.2218851828098067e+01  9.3953956011003214e+01  9.4940399947525734e+01  9.5263967177511091e+01  4.0000000000000000e+01  5.4976383052232848e+01  6.7479081702228939e+01  7.6768020618292510e+01  8.3417937142759868e+01  8.8112641599442824e+01  9.1385015210262395e+01  9.3614256998689910e+01  9.5056764025497728e+01  9.5872039223761121e+01  9.6138756641032344e+01  4.0000000000000000e+01  6.1039749636609614e+01  7.4402229984168386e+01  8.2598440433173394e+01  8.7910046392002030e+01  9.1466675366737434e+01  9.3873249067752781e+01  9.5484656143087363e+01  9.6516958215730142e+01  9.7097166758084114e+01  9.7286514764113477e+01  4.0000000000000000e+01  7.6958693624971446e+01  8.6178752879244996e+01  9.0905211141807854e+01  9.3777056579420133e+01  9.5643717164447466e+01  9.6887195834349995e+01  9.7712523792866051e+01  9.8238590446001069e+01  9.8533452420495749e+01  9.8629558633894632e+01  4.0000000000000000e+01  7.7048631815835407e+01  8.6325103527032866e+01  9.1065065779770777e+01  9.3922166614515646e+01  9.5763295197127917e+01  9.6981248710075334e+01  9.7785711642479001e+01  9.8296896128886260e+01  9.8582908738428685e+01  9.8676056129464712e+01  4.0000000000000000e+01  6.1214323366369342e+01  7.4687173487956059e+01  8.2910865175652930e+01  8.8194696375688750e+01  9.1701966071131835e+01  9.4058758031714248e+01  9.5629265225445053e+01  9.6632302833177690e+01  9.7195077439820082e+01  9.7378591123667647e+01  4.0000000000000000e+01  5.5215321570892158e+01  6.7871331278983334e+01  7.7201255094122871e+01  8.3815495870956653e+01  8.8443276519366677e+01  9.1646946509648203e+01  9.3819162750252488e+01  9.5220605936553270e+01  9.6011325430416704e+01  9.6269810795409725e+01  4.0000000000000000e+01  5.2720131829334761e+01  6.4291762964249045e+01  7.3708901774410933e+01  8.0882165160807816e+01  8.6138711852132559e+01  8.9884122845927280e+01  9.2469040270953897e+01  9.4154533917746761e+01  9.5111190814960906e+01  9.5424753384359065e+01  4.0000000000000000e+01  5.1646500857766831e+01  6.2583348511689834e+01  7.1878488327231238e+01  7.9238351533469185e+01  8.4789210740758165e+01  8.8822531228080408e+01  9.1641522323193868e+01  9.3493973068593860e+01  9.4550039593860646e+01  9.4896873174743703e+01  4.0000000000000000e+01  5.1341302370645053e+01  6.2077574485460403e+01  7.1312907100745647e+01  7.8712792290785643e+01  8.4347292865840146e+01  8.8469354363100777e+01  9.1363414727835945e+01  9.3270571950897804e+01  9.4359585244586341e+01  9.4717500457398913e+01  4.0000000000000000e+01  5.1646500857174452e+01  6.2583348510534996e+01  7.1878488325651873e+01  7.9238351531769524e+01  8.4789210739431468e+01  8.8822531227763790e+01  9.1641522324414083e+01  9.3493973071496939e+01  9.4550039598086457e+01  9.4896873179418932e+01  4.0000000000000000e+01  5.2720131828300502e+01  6.4291762962211138e+01  7.3708901771611892e+01  8.0882165157841328e+01  8.6138711849837719e+01  8.9884122845390280e+01  9.2469040273086449e+01  9.4154533922821159e+01  9.5111190822331778e+01  9.5424753392432876e+01  4.0000000000000000e+01  5.5215321569663161e+01  6.7871331276542620e+01  7.7201255090880977e+01  8.3815495867555043e+01  8.8443276516772002e+01  9.1646946509091563e+01  9.3819162752767937e+01  9.5220605942433835e+01  9.6011325438911470e+01  9.6269810804723491e+01  4.0000000000000000e+01  6.1214323365276364e+01  7.4687173485892387e+01  8.2910865172896095e+01  8.8194696372837058e