<?xml version="1.0"?>
<VTKFile type="UnstructuredGrid"  version="0.1"  >
<UnstructuredGrid>
<Piece  NumberOfPoints="14206" NumberOfCells="74130">
<Points>
<DataArray  type="Float64"  NumberOfComponents="3"  format="ascii">0 3.1 2.4  0 3.1 2.5  0.1 3.1 2.5  0.1 3.2 2.5  0 3.2 2.5  0 3.2 2.4  0.1 3.3 2.5  0 3.3 2.5  0 3.3 2.4  0.1 3.4 2.5  0 3.4 2.5  0 3.4 2.4  0.1 3.5 2.5  0 3.5 2.5  0 3.5 2.4  0.1 3.6 2.5  0 3.6 2.5  0 3.6 2.4  0.1 3.7 2.5  0 3.7 2.5  0 3.7 2.4  0.1 3.8 2.5  0 3.8 2.5  0 3.8 2.4  0.1 3.9 2.5  0 3.9 2.5  0 2.5 2.5  0 2.5 2.6  0 2.6 2.6  0.1 2.6 2.6  0 2.6 2.5  0.1 2.7 2.6  0 2.7 2.5  0.1 2.7 2.5  0 2.7 2.6  0.1 2.8 2.5  0.1 2.8 2.6  0 2.8 2.5  0 2.8 2.6  0.2 2.7 2.6  0.2 2.8 2.6  0.1 2.9 2.5  0.1 2.9 2.6  0 2.9 2.5  0 2.9 2.6  0.2 2.9 2.6  0.1 3 2.5  0.1 3 2.6  0 3 2.5  0 3 2.6  0.2 3 2.6  0.1 3.1 2.6  0 3.1 2.6  0.2 3.1 2.6  0.1 3.2 2.6  0 3.2 2.6  0.2 3.2 2.6  0.1 3.3 2.6  0 3.3 2.6  0.2 3.3 2.6  0.1 3.4 2.6  0 3.4 2.6  0.2 3.4 2.6  0.1 3.5 2.6  0 3.5 2.6  0.2 3.5 2.6  0.1 3.6 2.6  0 3.6 2.6  0.2 3.6 2.6  0.1 3.7 2.6  0 3.7 2.6  0.2 3.7 2.6  0.1 3.8 2.6  0 3.8 2.6  0.2 3.8 2.6  0.2 3.8 2.5  0.1 3.9 2.6  0 3.9 2.6  0.2 3.9 2.5  0.2 3.9 2.6  0.3 3.9 2.6  0.1 4 2.5  0.1 4 2.6  0 4 2.5  0 4 2.6  0.2 4 2.5  0.2 4 2.6  0.3 4 2.6  0.1 4.1 2.5  0.1 4.1 2.6  0 4.1 2.5  0 4.1 2.6  0.2 4.1 2.5  0.2 4.1 2.6  0.3 4.1 2.6  0.1 4.2 2.6  0 4.2 2.6  0 4.2 2.5  0.2 4.2 2.6  0.3 4.2 2.6  0.1 4.3 2.6  0 4.3 2.6  0 4.3 2.5  0.1 4.4 2.6  0 4.4 2.6  0 4.4 2.5  0.1 4.5 2.6  0 4.5 2.6  0.1 2.5 2.6  0.1 2.6 2.7  0.1 2.5 2.7  0 2.5 2.7  0 2.6 2.7  0.2 2.6 2.7  0.1 2.7 2.7  0 2.7 2.7  0.2 2.7 2.7  0.1 2.8 2.7  0 2.8 2.7  0.2 2.8 2.7  0.3 2.7 2.7  0.3 2.8 2.7  0.1 2.9 2.7  0 2.9 2.7  0.2 2.9 2.7  0.3 2.9 2.7  0.1 3 2.7  0 3 2.7  0.2 3 2.7  0.3 3 2.7  0.1 3.1 2.7  0 3.1 2.7  0.2 3.1 2.7  0.3 3.1 2.7  0.1 3.2 2.7  0 3.2 2.7  0.2 3.2 2.7  0.3 3.2 2.7  0.1 3.3 2.7  0 3.3 2.7  0.2 3.3 2.7  0.3 3.3 2.7  0.3 3.3 2.6  0.1 3.4 2.7  0 3.4 2.7  0.2 3.4 2.7  0.3 3.4 2.6  0.3 3.4 2.7  0.4 3.4 2.7  0.1 3.5 2.7  0 3.5 2.7  0.2 3.5 2.7  0.3 3.5 2.6  0.3 3.5 2.7  0.4 3.5 2.7  0.1 3.6 2.7  0 3.6 2.7  0.2 3.6 2.7  0.3 3.6 2.7  0.4 3.6 2.7  0.1 3.7 2.7  0 3.7 2.7  0.2 3.7 2.7  0.3 3.7 2.7  0.1 3.8 2.7  0 3.8 2.7  0.2 3.8 2.7  0.3 3.8 2.7  0.1 3.9 2.7  0 3.9 2.7  0.2 3.9 2.7  0.3 3.9 2.7  0.1 4 2.7  0 4 2.7  0.2 4 2.7  0.3 4 2.7  0.4 4 2.6  0.4 4 2.7  0.1 4.1 2.7  0 4.1 2.7  0.2 4.1 2.7  0.3 4.1 2.7  0.4 4.1 2.6  0.4 4.1 2.7  0.5 4 2.7  0.5 4.1 2.7  0.1 4.2 2.7  0 4.2 2.7  0.2 4.2 2.7  0.3 4.2 2.7  0.4 4.2 2.6  0.4 4.2 2.7  0.5 4.2 2.7  0.1 4.3 2.7  0 4.3 2.7  0.2 4.3 2.6  0.2 4.3 2.7  0.3 4.3 2.7  0.4 4.3 2.7  0.5 4.3 2.7  0.1 4.4 2.7  0 4.4 2.7  0.2 4.4 2.6  0.2 4.4 2.7  0.3 4.4 2.7  0.1 4.5 2.7  0 4.5 2.7  0.2 4.5 2.6  0.2 4.5 2.7  0.3 4.4 2.6  0.3 4.5 2.6  0.3 4.5 2.7  0.4 4.4 2.7  0.4 4.5 2.7  0.1 4.6 2.7  0 4.6 2.7  0.2 4.6 2.7  0.3 4.6 2.7  0.4 4.6 2.7  0 4.7 2.6  0 4.7 2.7  0.1 4.7 2.7  0.1 4.8 2.7  0 4.8 2.7  0 4.8 2.6  0.1 4.9 2.7  0 4.9 2.7  0 4.9 2.6  0.1 5 2.7  0 5 2.7  0 5 2.6  0 2.3 2.7  0.1 2.3 2.7  0.1 2.4 2.7  0.1 2.4 2.8  0 2.4 2.7  0 2.4 2.8  0.2 2.4 2.7  0.2 2.4 2.8  0.1 2.5 2.8  0 2.5 2.8  0.2 2.5 2.7  0.2 2.5 2.8  0.3 2.5 2.8  0.1 2.6 2.8  0 2.6 2.8  0.2 2.6 2.8  0.3 2.6 2.8  0.1 2.7 2.8  0 2.7 2.8  0.2 2.7 2.8  0.3 2.7 2.8  0.1 2.8 2.8  0 2.8 2.8  0.2 2.8 2.8  0.3 2.8 2.8  0.4 2.7 2.8  0.4 2.8 2.8  0.4 2.8 2.7  0.1 2.9 2.8  0 2.9 2.8  0.2 2.9 2.8  0.3 2.9 2.8  0.4 2.9 2.7  0.4 2.9 2.8  0.5 2.8 2.8  0.5 2.9 2.8  0.1 3 2.8  0 3 2.8  0.2 3 2.8  0.3 3 2.8  0.4 3 2.7  0.4 3 2.8  0.5 3 2.8  0.1 3.1 2.8  0 3.1 2.8  0.2 3.1 2.8  0.3 3.1 2.8  0.4 3.1 2.7  0.4 3.1 2.8  0.5 3.1 2.8  0.1 3.2 2.8  0 3.2 2.8  0.2 3.2 2.8  0.3 3.2 2.8  0.4 3.2 2.7  0.4 3.2 2.8  0.5 3.2 2.8  0.1 3.3 2.8  0 3.3 2.8  0.2 3.3 2.8  0.3 3.3 2.8  0.4 3.3 2.7  0.4 3.3 2.8  0.5 3.3 2.8  0.1 3.4 2.8  0 3.4 2.8  0.2 3.4 2.8  0.3 3.4 2.8  0.4 3.4 2.8  0.5 3.4 2.8  0.5 3.4 2.7  0.1 3.5 2.8  0 3.5 2.8  0.2 3.5 2.8  0.3 3.5 2.8  0.4 3.5 2.8  0.5 3.5 2.7  0.5 3.5 2.8  0.6 3.5 2.8  0.1 3.6 2.8  0 3.6 2.8  0.2 3.6 2.8  0.3 3.6 2.8  0.4 3.6 2.8  0.5 3.6 2.7  0.5 3.6 2.8  0.6 3.6 2.8  0.6 3.6 2.7  0.1 3.7 2.8  0 3.7 2.8  0.2 3.7 2.8  0.3 3.7 2.8  0.4 3.7 2.7  0.4 3.7 2.8  0.5 3.7 2.7  0.5 3.7 2.8  0.6 3.7 2.7  0.6 3.7 2.8  0.7 3.7 2.8  0.1 3.8 2.8  0 3.8 2.8  0.2 3.8 2.8  0.3 3.8 2.8  0.4 3.8 2.7  0.4 3.8 2.8  0.5 3.8 2.7  0.5 3.8 2.8  0.6 3.8 2.7  0.6 3.8 2.8  0.7 3.8 2.8  0.1 3.9 2.8  0 3.9 2.8  0.2 3.9 2.8  0.3 3.9 2.8  0.4 3.9 2.7  0.4 3.9 2.8  0.5 3.9 2.7  0.5 3.9 2.8  0.6 3.9 2.8  0.7 3.9 2.8  0.1 4 2.8  0 4 2.8  0.2 4 2.8  0.3 4 2.8  0.4 4 2.8  0.5 4 2.8  0.6 4 2.8  0.1 4.1 2.8  0 4.1 2.8  0.2 4.1 2.8  0.3 4.1 2.8  0.4 4.1 2.8  0.5 4.1 2.8  0.6 4.1 2.8  0.1 4.2 2.8  0 4.2 2.8  0.2 4.2 2.8  0.3 4.2 2.8  0.4 4.2 2.8  0.5 4.2 2.8  0.6 4.2 2.8  0.1 4.3 2.8  0 4.3 2.8  0.2 4.3 2.8  0.3 4.3 2.8  0.4 4.3 2.8  0.5 4.3 2.8  0.6 4.3 2.8  0.1 4.4 2.8  0 4.4 2.8  0.2 4.4 2.8  0.3 4.4 2.8  0.4 4.4 2.8  0.5 4.4 2.7  0.5 4.4 2.8  0.6 4.4 2.8  0.1 4.5 2.8  0 4.5 2.8  0.2 4.5 2.8  0.3 4.5 2.8  0.4 4.5 2.8  0.5 4.5 2.8  0.6 4.5 2.8  0.1 4.6 2.8  0 4.6 2.8  0.2 4.6 2.8  0.3 4.6 2.8  0.4 4.6 2.8  0.5 4.6 2.8  0.1 4.7 2.8  0 4.7 2.8  0.2 4.7 2.7  0.2 4.7 2.8  0.3 4.7 2.8  0.4 4.7 2.8  0.5 4.7 2.8  0.1 4.8 2.8  0 4.8 2.8  0.2 4.8 2.7  0.2 4.8 2.8  0.3 4.8 2.8  0.1 4.9 2.8  0 4.9 2.8  0.2 4.9 2.7  0.2 4.9 2.8  0.3 4.9 2.8  0.1 5 2.8  0 5 2.8  0.2 5 2.7  0.2 5 2.8  0.3 5 2.8  0.1 2.5 2.9  0.1 2.4 2.9  0 2.4 2.9  0 2.5 2.9  0.2 2.5 2.9  0.2 2.4 2.9  0.3 2.5 2.9  0.1 2.6 2.9  0 2.6 2.9  0.2 2.6 2.9  0.3 2.6 2.9  0.4 2.5 2.9  0.4 2.6 2.9  0.1 2.7 2.9  0 2.7 2.9  0.2 2.7 2.9  0.3 2.7 2.9  0.4 2.6 2.8  0.4 2.7 2.9  0.5 2.7 2.9  0.1 2.8 2.9  0 2.8 2.9  0.2 2.8 2.9  0.3 2.8 2.9  0.4 2.8 2.9  0.5 2.7 2.8  0.5 2.8 2.9  0.6 2.7 2.9  0.6 2.8 2.9  0.6 2.8 2.8  0.1 2.9 2.9  0 2.9 2.9  0.2 2.9 2.9  0.3 2.9 2.9  0.4 2.9 2.9  0.5 2.9 2.9  0.6 2.9 2.8  0.6 2.9 2.9  0.7 2.8 2.9  0.7 2.9 2.9  0.1 3 2.9  0 3 2.9  0.2 3 2.9  0.3 3 2.9  0.4 3 2.9  0.5 3 2.9  0.6 3 2.8  0.6 3 2.9  0.7 3 2.9  0.1 3.1 2.9  0 3.1 2.9  0.2 3.1 2.9  0.3 3.1 2.9  0.4 3.1 2.9  0.5 3.1 2.9  0.6 3.1 2.8  0.6 3.1 2.9  0.7 3 2.8  0.7 3.1 2.8  0.7 3.1 2.9  0.8 3 2.9  0.8 3.1 2.9  0.8 3.1 2.8  0.1 3.2 2.9  0 3.2 2.9  0.2 3.2 2.9  0.3 3.2 2.9  0.4 3.2 2.9  0.5 3.2 2.9  0.6 3.2 2.8  0.6 3.2 2.9  0.7 3.2 2.8  0.7 3.2 2.9  0.8 3.2 2.8  0.8 3.2 2.9  0.9 3.2 2.9  0.1 3.3 2.9  0 3.3 2.9  0.2 3.3 2.9  0.3 3.3 2.9  0.4 3.3 2.9  0.5 3.3 2.9  0.6 3.3 2.8  0.6 3.3 2.9  0.7 3.3 2.8  0.7 3.3 2.9  0.8 3.3 2.9  0.9 3.3 2.9  0.1 3.4 2.9  0 3.4 2.9  0.2 3.4 2.9  0.3 3.4 2.9  0.4 3.4 2.9  0.5 3.4 2.9  0.6 3.4 2.8  0.6 3.4 2.9  0.7 3.4 2.8  0.7 3.4 2.9  0.8 3.4 2.9  0.1 3.5 2.9  0 3.5 2.9  0.2 3.5 2.9  0.3 3.5 2.9  0.4 3.5 2.9  0.5 3.5 2.9  0.6 3.5 2.9  0.7 3.5 2.8  0.7 3.5 2.9  0.8 3.4 2.8  0.8 3.5 2.8  0.8 3.5 2.9  0.9 3.5 2.8  0.9 3.5 2.9  0.1 3.6 2.9  0 3.6 2.9  0.2 3.6 2.9  0.3 3.6 2.9  0.4 3.6 2.9  0.5 3.6 2.9  0.6 3.6 2.9  0.7 3.6 2.8  0.7 3.6 2.9  0.8 3.6 2.8  0.8 3.6 2.9  0.9 3.6 2.8  0.9 3.6 2.9  1 3.5 2.8  1 3.6 2.8  1 3.6 2.9  1 3.5 2.9  1.1 3.6 2.9  0.1 3.7 2.9  0 3.7 2.9  0.2 3.7 2.9  0.3 3.7 2.9  0.4 3.7 2.9  0.5 3.7 2.9  0.6 3.7 2.9  0.7 3.7 2.9  0.8 3.7 2.8  0.8 3.7 2.9  0.9 3.7 2.8  0.9 3.7 2.9  1 3.7 2.8  1 3.7 2.9  1.1 3.7 2.9  0.1 3.8 2.9  0 3.8 2.9  0.2 3.8 2.9  0.3 3.8 2.9  0.4 3.8 2.9  0.5 3.8 2.9  0.6 3.8 2.9  0.7 3.8 2.9  0.8 3.8 2.8  0.8 3.8 2.9  0.9 3.8 2.8  0.9 3.8 2.9  1 3.8 2.9  1.1 3.8 2.9  0.1 3.9 2.9  0 3.9 2.9  0.2 3.9 2.9  0.3 3.9 2.9  0.4 3.9 2.9  0.5 3.9 2.9  0.6 3.9 2.9  0.7 3.9 2.9  0.8 3.9 2.8  0.8 3.9 2.9  0.9 3.9 2.8  0.9 3.9 2.9  1 3.9 2.9  0.1 4 2.9  0 4 2.9  0.2 4 2.9  0.3 4 2.9  0.4 4 2.9  0.5 4 2.9  0.6 4 2.9  0.7 4 2.8  0.7 4 2.9  0.8 4 2.8  0.8 4 2.9  0.9 4 2.9  1 4 2.9  0.1 4.1 2.9  0 4.1 2.9  0.2 4.1 2.9  0.3 4.1 2.9  0.4 4.1 2.9  0.5 4.1 2.9  0.6 4.1 2.9  0.7 4.1 2.8  0.7 4.1 2.9  0.8 4.1 2.8  0.8 4.1 2.9  0.9 4.1 2.9  0.1 4.2 2.9  0 4.2 2.9  0.2 4.2 2.9  0.3 4.2 2.9  0.4 4.2 2.9  0.5 4.2 2.9  0.6 4.2 2.9  0.7 4.2 2.8  0.7 4.2 2.9  0.8 4.2 2.8  0.8 4.2 2.9  0.9 4.2 2.9  0.1 4.3 2.9  0 4.3 2.9  0.2 4.3 2.9  0.3 4.3 2.9  0.4 4.3 2.9  0.5 4.3 2.9  0.6 4.3 2.9  0.7 4.3 2.8  0.7 4.3 2.9  0.8 4.3 2.8  0.8 4.3 2.9  0.9 4.3 2.9  0.1 4.4 2.9  0 4.4 2.9  0.2 4.4 2.9  0.3 4.4 2.9  0.4 4.4 2.9  0.5 4.4 2.9  0.6 4.4 2.9  0.7 4.4 2.8  0.7 4.4 2.9  0.8 4.4 2.9  0.9 4.4 2.9  0.1 4.5 2.9  0 4.5 2.9  0.2 4.5 2.9  0.3 4.5 2.9  0.4 4.5 2.9  0.5 4.5 2.9  0.6 4.5 2.9  0.7 4.5 2.8  0.7 4.5 2.9  0.8 4.5 2.9  0.1 4.6 2.9  0 4.6 2.9  0.2 4.6 2.9  0.3 4.6 2.9  0.4 4.6 2.9  0.5 4.6 2.9  0.6 4.6 2.8  0.6 4.6 2.9  0.7 4.6 2.8  0.7 4.6 2.9  0.8 4.6 2.9  0.1 4.7 2.9  0 4.7 2.9  0.2 4.7 2.9  0.3 4.7 2.9  0.4 4.7 2.9  0.5 4.7 2.9  0.6 4.7 2.8  0.6 4.7 2.9  0.7 4.7 2.9  0.8 4.7 2.9  0.1 4.8 2.9  0 4.8 2.9  0.2 4.8 2.9  0.3 4.8 2.9  0.4 4.8 2.8  0.4 4.8 2.9  0.5 4.8 2.8  0.5 4.8 2.9  0.6 4.8 2.9  0.7 4.8 2.9  0.1 4.9 2.9  0 4.9 2.9  0.2 4.9 2.9  0.3 4.9 2.9  0.4 4.9 2.8  0.4 4.9 2.9  0.5 4.9 2.9  0.6 4.9 2.9  0.1 5 2.9  0 5 2.9  0.2 5 2.9  0.3 5 2.9  0.4 5 2.8  0.4 5 2.9  0.5 5 2.9  0.1 2.5 3  0 2.5 3  0.2 2.5 3  0.3 2.5 3  0.1 2.6 3  0 2.6 3  0.2 2.6 3  0.3 2.6 3  0.4 2.6 3  0.5 2.5 2.9  0.5 2.6 2.9  0.5 2.6 3  0.6 2.6 3  0.1 2.7 3  0 2.7 3  0.2 2.7 3  0.3 2.7 3  0.4 2.7 3  0.5 2.7 3  0.6 2.7 3  0.1 2.8 3  0 2.8 3  0.2 2.8 3  0.3 2.8 3  0.4 2.8 3  0.5 2.8 3  0.6 2.8 3  0.7 2.8 3  0.1 2.9 3  0 2.9 3  0.2 2.9 3  0.3 2.9 3  0.4 2.9 3  0.5 2.9 3  0.6 2.9 3  0.7 2.9 3  0.8 2.8 3  0.8 2.9 3  0.1 3 3  0 3 3  0.2 3 3  0.3 3 3  0.4 3 3  0.5 3 3  0.6 3 3  0.7 3 3  0.8 2.9 2.9  0.8 3 3  0.9 3 3  0.1 3.1 3  0 3.1 3  0.2 3.1 3  0.3 3.1 3  0.4 3.1 3  0.5 3.1 3  0.6 3.1 3  0.7 3.1 3  0.8 3.1 3  0.9 3.1 3  0.1 3.2 3  0 3.2 3  0.2 3.2 3  0.3 3.2 3  0.4 3.2 3  0.5 3.2 3  0.6 3.2 3  0.7 3.2 3  0.8 3.2 3  0.9 3.2 3  0.1 3.3 3  0 3.3 3  0.2 3.3 3  0.3 3.3 3  0.4 3.3 3  0.5 3.3 3  0.6 3.3 3  0.7 3.3 3  0.8 3.3 3  0.9 3.3 3  1 3.3 3  0.1 3.4 3  0 3.4 3  0.2 3.4 3  0.3 3.4 3  0.4 3.4 3  0.5 3.4 3  0.6 3.4 3  0.7 3.4 3  0.8 3.4 3  0.9 3.4 2.9  0.9 3.4 3  1 3.4 3 
[...]
<PointData  Scalars="c_HbCO2"> 
<DataArray  type="Float64"  Name="c_HbCO2"  format="ascii">6.3999999999999997e-22  6.3999999999999997e-22  -1.9168383720014482e-22  -1.9168383720233749e-22  6.3999999999999997e-22  6.3999999999999997e-22  -1.9168383719743598e-22  6.3999999999999997e-22  6.3999999999999997e-22  -1.9168383719917955e-22  6.3999999999999997e-22  6.3999999999999997e-22  -1.9168383719953506e-22  6.3999999999999997e-22  6.3999999999999997e-22  -1.9168383719958411e-22  6.3999999999999997e-22  6.3999999999999997e-22  -1.9168383720366963e-22  6.3999999999999997e-22  6.3999999999999997e-22  -1.9168383720160483e-22  6.3999999999999997e-22  6.3999999999999997e-22  -1.9168383720350168e-22  6.3999999999999997e-22  6.3999999999999997e-22  6.3999999999999997e-22  6.3999999999999997e-22  -1.9168383719654978e-22  6.3999999999999997e-22  -1.9168383720003098e-22  6.3999999999999997e-22  -1.9168383720255350e-22  6.3999999999999997e-22  -1.9168383719665014e-22  -1.9168383720243094e-22  6.3999999999999997e-22  6.3999999999999997e-22  2.0555126081757927e-23  2.0555126083955199e-23  -1.9168383720236758e-22  -1.9168383720299668e-22  6.3999999999999997e-22  6.3999999999999997e-22  2.0555126083700287e-23  -1.9168383720348315e-22  -1.9168383720331056e-22  6.3999999999999997e-22  6.3999999999999997e-22  2.0555126080779028e-23  -1.9168383720223026e-22  6.3999999999999997e-22  2.0555126085548855e-23  -1.9168383720381278e-22  6.3999999999999997e-22  2.0555126084839041e-23  -1.9168383720204108e-22  6.3999999999999997e-22  2.0555126081891357e-23  -1.9168383720193921e-22  6.3999999999999997e-22  2.0555126082402180e-23  -1.9168383720490733e-22  6.3999999999999997e-22  2.0555126080834647e-23  -1.9168383720288550e-22  6.3999999999999997e-22  2.0555126079637882e-23  -1.9168383720210954e-22  6.3999999999999997e-22  2.0555126084427031e-23  -1.9168383720129076e-22  6.3999999999999997e-22  2.0555126079573573e-23  2.0555126082841977e-23  -1.9168383720156980e-22  6.3999999999999997e-22  2.0555126081336815e-23  2.0555126081725642e-23  -3.2781174212583207e-24  -1.9168383720281526e-22  -1.9168383720047732e-22  6.3999999999999997e-22  6.3999999999999997e-22  2.0555126082638590e-23  2.0555126081483387e-23  -3.2781174205960524e-24  -1.9168383720788657e-22  -1.9168383720695269e-22  6.3999999999999997e-22  6.3999999999999997e-22  2.0555126077802738e-23  2.0555126078473390e-23  -3.2781174203574013e-24  -1.9168383725089575e-22  6.3999999999999997e-22  6.3999999999999997e-22  2.0555126167017584e-23  -3.2781174458388065e-24  -1.9168383509169046e-22  6.3999999999999997e-22  6.3999999999999997e-22  -1.9168386786464007e-22  6.3999999999999997e-22  6.3999999999999997e-22  -1.9168364178270278e-22  6.3999999999999997e-22  -1.9168383720133479e-22  -1.9168383720216030e-22  -1.9168383720395264e-22  6.3999999999999997e-22  6.3999999999999997e-22  2.0555126080272093e-23  -1.9168383720354397e-22  6.3999999999999997e-22  2.0555126082415927e-23  -1.9168383720288120e-22  6.3999999999999997e-22  2.0555126081669835e-23  -3.2781174194829404e-24  -3.2781174219908300e-24  -1.9168383720197473e-22  6.3999999999999997e-22  2.0555126081857424e-23  -3.2781174219886381e-24  -1.9168383720167956e-22  6.3999999999999997e-22  2.0555126082251467e-23  -3.2781174202947030e-24  -1.9168383720030816e-22  6.3999999999999997e-22  2.0555126082315396e-23  -3.2781174212900764e-24  -1.9168383720118376e-22  6.3999999999999997e-22  2.0555126083071980e-23  -3.2781174220902905e-24  -1.9168383720164834e-22  6.3999999999999997e-22  2.0555126081485253e-23  -3.2781174212077649e-24  -3.2781174209560883e-24  -1.9168383720090908e-22  6.3999999999999997e-22  2.0555126084983510e-23  -3.2781174202431458e-24  -3.2781174211197858e-24  4.4232377958190056e-25  -1.9168383720143335e-22  6.3999999999999997e-22  2.0555126082138905e-23  -3.2781174221768333e-24  -3.2781174221331449e-24  4.4232378026443409e-25  -1.9168383720140038e-22  6.3999999999999997e-22  2.0555126082428176e-23  -3.2781174211109046e-24  4.4232377928298097e-25  -1.9168383720220108e-22  6.3999999999999997e-22  2.0555126081900902e-23  -3.2781174184275382e-24  -1.9168383720174001e-22  6.3999999999999997e-22  2.0555126080929003e-23  -3.2781174221151977e-24  -1.9168383720082369e-22  6.3999999999999997e-22  2.0555126082790798e-23  -3.2781174208436012e-24  -1.9168383720084804e-22  6.3999999999999997e-22  2.0555126082498879e-23  -3.2781174218462586e-24  4.4232378004364980e-25  4.4232378055971974e-25  -1.9168383720710727e-22  6.3999999999999997e-22  2.0555126078715077e-23  -3.2781174187408644e-24  4.4232377858889142e-25  4.4232377897372558e-25  -6.3804591439610534e-26  -6.3804590500933984e-26  -1.9168383725142209e-22  6.3999999999999997e-22  2.0555126167458350e-23  -3.2781174449013663e-24  4.4232377919424630e-25  4.4232377877452622e-25  -6.3804589708122600e-26  -1.9168383509189175e-22  6.3999999999999997e-22  2.0555125081539185e-23  2.0555125082886898e-23  -3.2781173932293129e-24  4.4232389970415114e-25  -6.3804646976197105e-26  -1.9168386786310922e-22  6.3999999999999997e-22  2.0555129842266723e-23  2.0555129841701619e-23  -3.2781128614802299e-24  -1.9168364178284015e-22  6.3999999999999997e-22  2.0555274693209462e-23  2.0555274694720686e-23  -3.2781128611694524e-24  -3.2782318810909615e-24  -3.2782318806426346e-24  4.4232122762347726e-25  4.4235931065394971e-25  -1.9168053832076765e-22  6.3999999999999997e-22  2.0550235603458005e-23  -3.2763892775195919e-24  4.4194304870005681e-25  6.3999999999999997e-22  6.3999999999999997e-22  -1.9186992447995636e-22  -1.8797336972188893e-22  6.3999999999999997e-22  6.3999999999999997e-22  -2.4618685603164153e-22  6.3999999999999997e-22  6.3999999999999997e-22  6.3999999999999997e-22  6.3999999999999997e-22  6.3999999999999997e-22  6.3999999999999997e-22  -1.9168383720185909e-22  -1.9168383720024617e-22  -1.9168383720104193e-22  6.3999999999999997e-22  6.3999999999999997e-22  2.0555126082385373e-23  2.0555126080869850e-23  -1.9168383720176620e-22  6.3999999999999997e-22  2.0555126083727300e-23  2.0555126082988478e-23  -3.2781174207009179e-24  -1.9168383720216721e-22  6.3999999999999997e-22  2.0555126082740332e-23  -3.2781174208072005e-24  -1.9168383720116077e-22  6.3999999999999997e-22  2.0555126082380116e-23  -3.2781174199217804e-24  -1.9168383720145180e-22  6.3999999999999997e-22  2.0555126082879078e-23  -3.2781174201534696e-24  4.4232378194118265e-25  4.4232377835856120e-25  4.4232377917321037e-25  -1.9168383720148326e-22  6.3999999999999997e-22  2.0555126083877149e-23  -3.2781174214339102e-24  4.4232377795194117e-25  4.4232377958399440e-25  -6.3804591146125709e-26  -6.3804592060206681e-26  -1.9168383720177215e-22  6.3999999999999997e-22  2.0555126084213070e-23  -3.2781174206338298e-24  4.4232377987173715e-25  4.4232377869325401e-25  -6.3804591090813695e-26  -1.9168383720208071e-22  6.3999999999999997e-22  2.0555126084445045e-23  -3.2781174201311477e-24  4.4232377865384731e-25  4.4232377891460896e-25  -6.3804591390511869e-26  -1.9168383720190394e-22  6.3999999999999997e-22  2.0555126082676082e-23  -3.2781174197833685e-24  4.4232377840404521e-25  4.4232377890818525e-25  -6.3804590710084253e-26  -1.9168383720076912e-22  6.3999999999999997e-22  2.0555126082485185e-23  -3.2781174227827521e-24  4.4232377928811035e-25  4.4232378057497563e-25  -6.3804591130339727e-26  -1.9168383719931934e-22  6.3999999999999997e-22  2.0555126082812545e-23  -3.2781174197487344e-24  4.4232377898990094e-25  -6.3804591803985371e-26  -6.3804592258704882e-26  -1.9168383720138240e-22  6.3999999999999997e-22  2.0555126082623076e-23  -3.2781174208884000e-24  4.4232377847309806e-25  -6.3804590951224016e-26  -6.3804590829495825e-26  8.9608103232764060e-27  -1.9168383720154800e-22  6.3999999999999997e-22  2.0555126083462864e-23  -3.2781174219611473e-24  4.4232377941975489e-25  -6.3804591236383919e-26  -6.3804592057404596e-26  8.9608074097110959e-27  8.9608092025827035e-27  -1.9168383720065952e-22  6.3999999999999997e-22  2.0555126084195655e-23  -3.2781174206325478e-24  4.4232378050488109e-25  4.4232378035506204e-25  -6.3804591643884935e-26  -6.3804591666272098e-26  8.9608100191569587e-27  8.9608092365116304e-27  -1.2721341876112520e-27  -1.9168383720123828e-22  6.3999999999999997e-22  2.0555126082073456e-23  -3.2781174224056965e-24  4.4232378087489025e-25  4.4232377997949168e-25  -6.3804590485188123e-26  -6.3804590584210458e-26  8.9608086877283188e-27  8.9608094724892557e-27  -1.2721342491043340e-27  -1.9168383720098266e-22  6.3999999999999997e-22  2.0555126083882709e-23  -3.2781174213543303e-24  4.4232377902260714e-25  4.4232377927458693e-25  -6.3804591654172737e-26  -6.3804592231870573e-26  8.9608087849156318e-27  -1.2721338015908304e-27  -1.9168383720122926e-22  6.3999999999999997e-22  2.0555126082483604e-23  -3.2781174208620590e-24  4.4232377976636583e-25  -6.3804591732767885e-26  8.9608093053382294e-27  -1.9168383720727929e-22  6.3999999999999997e-22  2.0555126079195849e-23  -3.2781174182628100e-24  4.4232377888697484e-25  -6.3804591618088000e-26  8.9608095502944792e-27  -1.9168383725130715e-22  6.3999999999999997e-22  2.0555126166950184e-23  -3.2781174448604260e-24  4.4232377861867275e-25  -6.3804588886731872e-26  8.9608090293610352e-27  -1.9168383509254939e-22  6.3999999999999997e-22  2.0555125082196927e-23  -3.2781173926767016e-24  4.4232390097103724e-25  -6.3804646260838894e-26  8.9608245563217909e-27  -1.9168386786438776e-22  6.3999999999999997e-22  2.0555129840684452e-23  -3.2781128618048019e-24  4.4232122810603753e-25  -6.3803872671263472e-26  -6.3803873092677037e-26  8.9606722072736653e-27  -1.9168364178274752e-22  6.3999999999999997e-22  2.0555274694019213e-23  -3.2782318801214130e-24  4.4235931236529142e-25  -6.3811812546578118e-26  8.9617824009315138e-27  -1.9168053832047192e-22  6.3999999999999997e-22  2.0550235603968316e-23  -3.2763892766192878e-24  4.4194304904224128e-25  -6.3751716944257294e-26  -1.9186992447797525e-22  6.3999999999999997e-22  2.0637088112867150e-23  2.0637088111640730e-23  -3.2981915205068834e-24  4.4525806541682018e-25  -6.4009431249384373e-26  -1.8797336972134065e-22  6.3999999999999997e-22  1.9504922985826251e-23  1.9504922986975200e-23  -3.1105717242102636e-24  -2.4618685603192957e-22  6.3999999999999997e-22  3.0611858818457315e-23  3.0611858816945524e-23  -3.8014292339855317e-24  6.3999999999999997e-22  6.3999999999999997e-22  -7.3427174309057910e-24  -7.3427174327750313e-24  -5.4802143842345162e-24  -1.9168383720152167e-22  -1.9168383720251654e-22  6.3999999999999997e-22  6.3999999999999997e-22  2.0555126083121950e-23  2.0555126082862692e-23  -3.2781174188357294e-24  -1.9168383720102225e-22  6.3999999999999997e-22  2.0555126082781033e-23  -3.2781174204959036e-24  4.4232377999716524e-25  4.4232377812361404e-25  -1.9168383720076183e-22  6.3999999999999997e-22  2.0555126083423006e-23  -3.2781174212566802e-24  4.4232377973139855e-25  4.4232377919175150e-25  -6.3804593126378932e-26  -1.9168383720189992e-22  6.3999999999999997e-22  2.0555126082807975e-23  -3.2781174211666314e-24  4.4232378013055612e-25  -6.3804591850398090e-26  -6.3804591476497754e-26  8.9608099845889429e-27  8.9608089075741310e-27  8.9608087681520119e-27  -1.9168383720169913e-22  6.3999999999999997e-22  2.0555126084593337e-23  -3.2781174205070546e-24  4.4232377996204891e-25  -6.3804590957085807e-26  8.9608100479901606e-27  8.9608089184482401e-27  -1.2721340073836252e-27  -1.2721344494480727e-27  -1.9168383720133352e-22  6.3999999999999997e-22  2.0555126083508076e-23  -3.2781174205997666e-24  4.4232377906790289e-25  -6.3804590945533567e-26  8.9608097061760490e-27  8.9608097254359069e-27  -1.2721340723964349e-27  -1.9168383720187108e-22  6.3999999999999997e-22  2.0555126082399565e-23  -3.2781174208159051e-24  4.4232377866194784e-25  -6.3804590938426292e-26  8.9608073920837244e-27  8.9608101089802731e-27  -1.2721340058716759e-27  -1.2721339930224956e-27  -1.2721337672269691e-27  1.7982524713490489e-28  1.7982509844380509e-28  1.7982481251553963e-28  -1.9168383720259614e-22  6.3999999999999997e-22  2.0555126084182992e-23  -3.2781174224416791e-24  4.4232377887996797e-25  -6.3804591449901310e-26  8.9608102269959499e-27  8.9608092699815921e-27  -1.2721356772586727e-27  -1.2721341099839455e-27  1.7982490808667869e-28  1.7982454189991577e-28  -2.5463799593755096e-29  -1.9168383720248809e-22  6.3999999999999997e-22  2.0555126082850822e-23  -3.2781174220941002e-24  4.4232377873459752e-25  -6.3804591006663739e-26  8.9608106640589366e-27  8.9608085299201222e-27  -1.2721327176553699e-27  -1.2721345654257181e-27  1.7982511225645239e-28  -2.5462901184891227e-29  -1.9168383720187505e-22  6.3999999999999997e-22  2.0555126082536507e-23  -3.2781174218088955e-24  4.4232377927937983e-25  -6.3804591914285266e-26  8.9608076494499861e-27  8.9608087678313209e-27  -1.2721338505191043e-27  -1.2721351115758036e-27  1.7982607489651293e-28  -1.9168383720232178e-22  6.3999999999999997e-22  2.0555126082793423e-23  -3.2781174212910090e-24  4.4232378021015031e-25  -6.3804591523125115e-26  8.9608100195444485e-27  -1.2721345095675167e-27  -1.2721351986308354e-27  1.7982459590256213e-28  1.7982449801499451e-28  1.7982416776123847e-28  -2.5463558101672245e-29  -2.5464018849088426e-29  -1.9168383720321885e-22  6.3999999999999997e-22  2.0555126082246871e-23  -3.2781174231109825e-24  4.4232378033236269e-25  -6.3804592115718323e-26  8.9608097574417367e-27  -1.2721332000218536e-27  -1.2721341876823117e-27  1.7982522303238400e-28  1.7982445579742241e-28  -2.5464409238683852e-29  -2.5464036699683393e-29  3.6027754322885961e-30  3.6033086992493162e-30  3.6031257810882512e-30  3.6020141977841156e-30  -5.0971320273474222e-31  -1.9168383720161308e-22  6.3999999999999997e-22  2.0555126083249144e-23  -3.2781174205669846e-24  4.4232377828282860e-25  -6.3804592052356893e-26  8.9608100534977677e-27  -1.2721337160233709e-27  1.7982565255433254e-28  1.7982429735272161e-28  -2.5463905666042130e-29  -2.5463224804238249e-29  3.6026404867669685e-30  3.6040536437972777e-30  -5.0966521419901694e-31  -1.9168383720130303e-22  6.3999999999999997e-22  2.0555126083060172e-23  -3.2781174216126111e-24  4.4232377985503199e-25  -6.3804590842730078e-26  8.9608092291868958e-27  -1.2721343434572323e-27  1.7982432886435410e-28  1.7982444458818373e-28  -2.5463414923063652e-29  -2.5463590764856789e-29  3.6026408283156503e-30  -5.0999081374349146e-31  -1.9168383720203687e-22  6.3999999999999997e-22  2.0555126083082562e-23  -3.2781174210192443e-24  4.4232377898253399e-25  -6.3804592205978324e-26  8.9608096718382748e-27  -1.2721346511615438e-27  1.7982494358089974e-28  1.7982482315555125e-28  -2.5463890215964024e-29  -2.5463350625069707e-29  3.6030437619243708e-30  -1.9168383720109222e-22  6.3999999999999997e-22  2.0555126082157201e-23  -3.2781174192979620e-24  4.4232378009231637e-25  -6.3804591442140522e-26  8.9608088463138255e-27  -1.2721327742780989e-27  -1.2721344307955281e-27  1.7982538397282864e-28  1.7982504239403079e-28  -2.5463492923671334e-29  3.6027546500337951e-30  -1.9168383720730999e-22  6.3999999999999997e-22  2.0555126078323805e-23  -3.2781174178427886e-24  4.4232377878928115e-25  -6.3804592152242597e-26  8.9608087413100877e-27  -1.2721333837990101e-27  -1.2721340867588574e-27  1.7982362187764760e-28  1.7982524406422327e-28  -2.5464043797885486e-29  -1.9168383725169142e-22  6.3999999999999997e-22  2.0555126166004423e-23  -3.2781174451793924e-24  4.4232377982074686e-25  -6.3804589600289154e-26  8.9608065962767623e-27  -1.2721354017137507e-27  -1.2721329741173641e-27  1.7982415480010051e-28  1.7982518868710201e-28  -2.5463653217756696e-29  -1.9168383509234709e-22  6.3999999999999997e-22  2.0555125082583370e-23  -3.2781173926993766e-24  4.4232390037151519e-25  -6.3804645763257002e-26  8.9608237337921774e-27  -1.2721366261218609e-27  -1.2721372792243139e-27  1.7982572344469752e-28  1.7982528351933256e-28  -2.5463798380950798e-29  -1.9168386786450173e-22  6.3999999999999997e-22  2.0555129840090533e-23  -3.2781128621565513e-24  4.4232122803108213e-25  -6.3803874507736563e-26  8.9606704585296119e-27  -1.2721158767251013e-27  -1.2721157536872220e-27  1.7982302077513135e-28  -2.5463824114393667e-29  -1.9168364178327276e-22  6.3999999999999997e-22  2.0555274693562299e-23  -3.2782318809776795e-24  4.4235931096556895e-25  -6.3811814763956160e-26  8.9617802261543041e-27  -1.2722104284641586e-27  -1.2722113374111479e-27  1.7982527732492164e-28  -1.9168053831975616e-22  6.3999999999999997e-22  2.0550235603425364e-23  -3.2763892758688896e-24  4.4194304905067233e-25  -6.3751715805104992e-26  8.9568398141643280e-27  8.9568390364017179e-27  -1.2721387456131369e-27  -1.2721374676943507e-27  1.7987918795583918e-28  -1.9186992447891114e-22  6.3999999999999997e-22  2.0637088112201988e-23  -3.2981915217744873e-24  4.4525806510237783e-25  -6.4009431389742565e-26  8.9583080709534529e-27  8.9583080535058207e-27  -1.2690782882332175e-27  1.7923144048024503e-28  -1.8797336972121457e-22  6.3999999999999997e-22  1.9504922987032241e-23  -3.1105717231869862e-24  4.3185870798786215e-25  4.3185870904364764e-25  -6.4095147905744582e-26  -6.4095148077135079e-26  9.1313909417700907e-27  -1.3029319020127396e-27  -2.4618685603308128e-22  6.3999999999999997e-22  3.0611858819351085e-23  -3.8014292343506932e-24  4.1596236308158343e-25  4.1596236338233283e-25  -5.4297936382876197e-26  7.3688673036526336e-27  6.3999999999999997e-22  6.3999999999999997e-22  -7.3427174319717807e-24  -5.4802143849379328e-24  9.7202149915567459e-25  9.7202149863668961e-25  -1.4577359200489235e-25  -1.9168383720181924e-22  6.3999999999999997e-22  2.0555126083284292e-23  -3.2781174219032539e-24  -1.9168383720245948e-22  6.3999999999999997e-22  2.0555126082977308e-23  -3.2781174215771552e-24  4.4232377849596547e-25  -6.3804594376389661e-26  -6.3804591571441732e-26  -6.3804590802598368e-26  8.9608085332009094e-27  -1.9168383720090562e-22  6.3999999999999997e-22  2.0555126083395805e-23  -3.2781174203494630e-24  4.4232377912918738e-25  -6.3804591925205770e-26  8.9608105977420109e-27  -1.9168383720208847e-22  6.3999999999999997e-22  2.0555126082968518e-23  -3.2781174210812689e-24  4.4232377929721245e-25  -6.3804590659862347e-26  8.9608099559711039e-27  -1.2721343783851690e-27  -1.9168383720191464e-22  6.3999999999999997e-22  2.0555126082576165e-23  -3.2781174218439329e-24  4.4232377772910959e-25  -6.3804590997196119e-26  8.9608101704482029e-27  -1.2721346357634372e-27  1.7982509002029021e-28  1.7982467456328182e-28  -1.9168383720196342e-22  6.3999999999999997e-22  2.0555126082930991e-23  -3.2781174214032831e-24  4.4232377811821861e-25  -6.3804590732565066e-26  8.9608100416974058e-27  -1.2721347283235564e-27  1.7982413202644849e-28  1.7982464376371435e-28  -2.5463297145362773e-29  -1.9168383720166986e-22  6.3999999999999997e-22  2.0555126082839467e-23  -3.2781174218361129e-24  4.4232377828199298e-25  -6.3804591428181033e-26  8.9608104307399561e-27  -1.2721351324115812e-27  1.7982507522101530e-28  -2.5464212123361668e-29  -1.9168383720170665e-22  6.3999999999999997e-22  2.0555126082946102e-23  -3.2781174213913544e-24  4.4232377843018545e-25  -6.3804590457662488e-26  8.9608099507419549e-27  -1.2721346757010499e-27  1.7982513431042243e-28  -2.5463707552860589e-29  -1.9168383720216888e-22  6.3999999999999997e-22  2.0555126084535594e-23  -3.2781174214334286e-24  4.4232377883933591e-25  -6.3804590776745826e-26  8.9608089104407961e-27  -1.2721351909579433e-27  1.7982392755572303e-28  -2.5463811365943880e-29  3.6034010228838706e-30  -1.9168383720106462e-22  6.3999999999999997e-22  2.0555126082893581e-23  -3.2781174205630687e-24  4.4232377930630251e-25  -6.3804591210458449e-26  8.9608100274078371e-27  -1.2721348593195629e-27  1.7982465347297765e-28  -2.5464004644899634e-29  -2.5463458435383060e-29  3.6029621320599377e-30  -1.9168383720023185e-22  6.3999999999999997e-22  2.0555126082237584e-23  -3.2781174208527899e-24  4.4232377992300743e-25  -6.3804589426482293e-26  8.9608101686235407e-27  -1.2721344779122840e-27  1.7982424365155742e-28  -2.5464585291949283e-29  3.6035022950374615e-30  3.60339107