<?xml version="1.0"?>
<VTKFile type="UnstructuredGrid"  version="0.1"  >
<UnstructuredGrid>
<Piece  NumberOfPoints="14456" NumberOfCells="75367">
<Points>
<DataArray  type="Float64"  NumberOfComponents="3"  format="ascii">0 0 2.4  0 0 2.5  0.1 0 2.5  0.1 0.1 2.5  0 0.1 2.5  0.1 0.1 2.6  0.1 0 2.6  0 0 2.6  0 0.1 2.6  0.2 0 2.5  0.2 0.1 2.5  0.2 0.1 2.6  0.2 0 2.6  0.3 0 2.5  0.3 0.1 2.5  0.3 0.1 2.6  0.3 0 2.6  0.4 0 2.5  0.4 0 2.6  0.4 0.1 2.6  0.5 0 2.5  0.5 0 2.6  0.5 0.1 2.6  0.6 0 2.5  0.6 0 2.6  0.6 0.1 2.6  0.7 0 2.5  0.7 0 2.6  0.7 0.1 2.6  0.8 0 2.5  0.8 0 2.6  0.8 0.1 2.6  0.9 0 2.5  0.9 0 2.6  0.9 0.1 2.6  1 0 2.5  1 0 2.6  1 0.1 2.6  1.1 0 2.5  1.1 0 2.6  1.1 0.1 2.6  1.2 0 2.5  1.2 0 2.6  1.2 0.1 2.6  1.3 0 2.6  1.3 0.1 2.6  0.1 0.2 2.5  0.1 0.2 2.6  0 0.2 2.5  0 0.2 2.6  0.2 0.2 2.6  0.3 0.2 2.6  0.4 0.2 2.6  0.1 0.3 2.6  0 0.3 2.6  0.2 0.3 2.6  0.1 0.1 2.7  0.1 0 2.7  0 0 2.7  0 0.1 2.7  0.2 0.1 2.7  0.2 0 2.7  0.3 0.1 2.7  0.3 0 2.7  0.4 0.1 2.7  0.4 0 2.7  0.5 0.1 2.7  0.5 0 2.7  0.6 0.1 2.7  0.6 0 2.7  0.7 0.1 2.7  0.7 0 2.7  0.8 0.1 2.7  0.8 0 2.7  0.9 0.1 2.7  0.9 0 2.7  1 0.1 2.7  1 0 2.7  1.1 0.1 2.7  1.1 0 2.7  1.2 0.1 2.7  1.2 0 2.7  1.3 0.1 2.7  1.3 0 2.7  1.4 0 2.6  1.4 0.1 2.6  1.4 0.1 2.7  1.4 0 2.7  1.5 0 2.6  1.5 0.1 2.6  1.5 0.1 2.7  1.5 0 2.7  1.6 0.1 2.7  0.1 0.2 2.7  0 0.2 2.7  0.2 0.2 2.7  0.3 0.2 2.7  0.4 0.2 2.7  0.5 0.2 2.7  0.6 0.2 2.7  0.7 0.2 2.7  0.8 0.2 2.6  0.8 0.2 2.7  0.7 0.2 2.6  0.9 0.2 2.6  0.9 0.2 2.7  1 0.2 2.6  1 0.2 2.7  1.1 0.2 2.6  1.1 0.2 2.7  1.2 0.2 2.6  1.2 0.2 2.7  1.3 0.2 2.6  1.3 0.2 2.7  1.4 0.2 2.7  1.5 0.2 2.7  1.6 0.2 2.7  0.1 0.3 2.7  0 0.3 2.7  0.2 0.3 2.7  0.3 0.3 2.6  0.3 0.3 2.7  0.4 0.3 2.7  0.5 0.3 2.7  0.8 0.3 2.7  0.7 0.3 2.7  0.9 0.3 2.7  1 0.3 2.7  1.1 0.3 2.7  1.2 0.3 2.7  1.3 0.3 2.7  1.4 0.3 2.7  0.1 0.4 2.6  0.1 0.4 2.7  0 0.4 2.6  0 0.4 2.7  0.2 0.4 2.7  0.3 0.4 2.7  0.4 0.4 2.7  0.1 0.5 2.7  0 0.5 2.7  0.2 0.5 2.7  0.1 0.1 2.8  0.1 0 2.8  0 0 2.8  0 0.1 2.8  0.2 0.1 2.8  0.2 0 2.8  0.3 0.1 2.8  0.3 0 2.8  0.4 0.1 2.8  0.4 0 2.8  0.5 0.1 2.8  0.5 0 2.8  0.6 0.1 2.8  0.6 0 2.8  0.7 0.1 2.8  0.7 0 2.8  0.8 0.1 2.8  0.8 0 2.8  0.9 0.1 2.8  0.9 0 2.8  1 0.1 2.8  1 0 2.8  1.1 0.1 2.8  1.1 0 2.8  1.2 0.1 2.8  1.2 0 2.8  1.3 0.1 2.8  1.3 0 2.8  1.4 0.1 2.8  1.4 0 2.8  1.5 0.1 2.8  1.5 0 2.8  1.6 0.1 2.8  0.1 0.2 2.8  0 0.2 2.8  0.2 0.2 2.8  0.3 0.2 2.8  0.4 0.2 2.8  0.5 0.2 2.8  0.6 0.2 2.8  0.7 0.2 2.8  0.8 0.2 2.8  0.9 0.2 2.8  1 0.2 2.8  1.1 0.2 2.8  1.2 0.2 2.8  1.3 0.2 2.8  1.4 0.2 2.8  1.5 0.2 2.8  1.6 0.2 2.8  0.1 0.3 2.8  0 0.3 2.8  0.2 0.3 2.8  0.3 0.3 2.8  0.4 0.3 2.8  0.5 0.3 2.8  0.6 0.3 2.7  0.6 0.3 2.8  0.7 0.3 2.8  0.8 0.3 2.8  0.9 0.3 2.8  1 0.3 2.8  1.1 0.3 2.8  1.2 0.3 2.8  1.3 0.3 2.8  1.4 0.3 2.8  1.5 0.3 2.7  1.5 0.3 2.8  1.6 0.3 2.7  1.6 0.3 2.8  1.7 0.3 2.8  0.1 0.4 2.8  0 0.4 2.8  0.2 0.4 2.8  0.3 0.4 2.8  0.4 0.4 2.8  0.5 0.4 2.8  0.6 0.4 2.8  0.7 0.4 2.8  0.8 0.4 2.8  0.9 0.4 2.8  1 0.4 2.8  1.1 0.4 2.8  1.2 0.4 2.8  1.3 0.4 2.8  1.4 0.4 2.8  1.5 0.4 2.8  1.6 0.4 2.8  1.7 0.4 2.8  0.1 0.5 2.8  0 0.5 2.8  0.2 0.5 2.8  0.3 0.5 2.8  0.4 0.5 2.8  0.5 0.5 2.8  0.1 0.6 2.7  0.1 0.6 2.8  0 0.6 2.7  0 0.6 2.8  0.2 0.6 2.8  0.3 0.6 2.8  0.1 0.7 2.8  0 0.7 2.8  0 0.7 2.7  0.2 0.7 2.8  0.1 0.8 2.8  0 0.8 2.8  0.1 0.1 2.9  0.1 0 2.9  0 0 2.9  0 0.1 2.9  0.2 0.1 2.9  0.2 0 2.9  0.3 0.1 2.9  0.3 0 2.9  0.4 0.1 2.9  0.4 0 2.9  0.5 0.1 2.9  0.5 0 2.9  0.6 0.1 2.9  0.6 0 2.9  0.7 0.1 2.9  0.7 0 2.9  0.8 0.1 2.9  0.8 0 2.9  0.9 0.1 2.9  0.9 0 2.9  1 0.1 2.9  1 0 2.9  1.1 0.1 2.9  1.1 0 2.9  1.2 0.1 2.9  1.2 0 2.9  1.3 0.1 2.9  1.3 0 2.9  1.4 0.1 2.9  1.4 0 2.9  1.5 0.1 2.9  1.5 0 2.9  1.6 0 2.9  1.6 0.1 2.9  0.1 0.2 2.9  0 0.2 2.9  0.2 0.2 2.9  0.3 0.2 2.9  0.4 0.2 2.9  0.5 0.2 2.9  0.6 0.2 2.9  0.7 0.2 2.9  0.8 0.2 2.9  0.9 0.2 2.9  1 0.2 2.9  1.1 0.2 2.9  1.2 0.2 2.9  1.3 0.2 2.9  1.4 0.2 2.9  1.5 0.2 2.9  1.6 0.2 2.9  1.7 0.2 2.9  0.1 0.3 2.9  0 0.3 2.9  0.2 0.3 2.9  0.3 0.3 2.9  0.4 0.3 2.9  0.5 0.3 2.9  0.6 0.3 2.9  0.7 0.3 2.9  0.8 0.3 2.9  0.9 0.3 2.9  1 0.3 2.9  1.1 0.3 2.9  1.2 0.3 2.9  1.3 0.3 2.9  1.4 0.3 2.9  1.5 0.3 2.9  1.6 0.3 2.9  1.7 0.3 2.9  0.1 0.4 2.9  0 0.4 2.9  0.2 0.4 2.9  0.3 0.4 2.9  0.4 0.4 2.9  0.5 0.4 2.9  0.6 0.4 2.9  0.7 0.4 2.9  0.8 0.4 2.9  0.9 0.4 2.9  1 0.4 2.9  1.1 0.4 2.9  1.2 0.4 2.9  1.3 0.4 2.9  1.4 0.4 2.9  1.5 0.4 2.9  1.6 0.4 2.9  1.7 0.4 2.9  1.8 0.4 2.9  0.1 0.5 2.9  0 0.5 2.9  0.2 0.5 2.9  0.3 0.5 2.9  0.4 0.5 2.9  0.5 0.5 2.9  0.6 0.5 2.9  0.7 0.5 2.9  0.8 0.5 2.9  0.9 0.5 2.8  0.9 0.5 2.9  0.8 0.5 2.8  1 0.5 2.8  1 0.5 2.9  1.1 0.5 2.8  1.1 0.5 2.9  1.2 0.5 2.8  1.2 0.5 2.9  1.3 0.5 2.9  1.4 0.5 2.9  1.5 0.5 2.9  1.6 0.5 2.9  1.7 0.5 2.9  1.8 0.5 2.9  0.1 0.6 2.9  0 0.6 2.9  0.2 0.6 2.9  0.3 0.6 2.9  0.4 0.6 2.9  0.5 0.6 2.9  0.9 0.6 2.9  0.8 0.6 2.9  1 0.6 2.9  1.1 0.6 2.9  1.2 0.6 2.9  1.3 0.6 2.9  0.1 0.7 2.9  0 0.7 2.9  0.2 0.7 2.9  0.3 0.7 2.8  0.3 0.7 2.9  0.4 0.7 2.9  0.1 0.8 2.9  0 0.8 2.9  0.2 0.8 2.8  0.2 0.8 2.9  0.3 0.8 2.9  0.4 0.8 2.9  0.1 0.9 2.9  0 0.9 2.9  0.2 0.9 2.9  0.3 0.9 2.9  0.1 0.1 3  0.1 0 3  0 0 3  0 0.1 3  0.2 0.1 3  0.2 0 3  0.3 0.1 3  0.3 0 3  0.4 0.1 3  0.4 0 3  0.5 0.1 3  0.5 0 3  0.6 0.1 3  0.6 0 3  0.7 0.1 3  0.7 0 3  0.8 0.1 3  0.8 0 3  0.9 0.1 3  0.9 0 3  1 0.1 3  1 0 3  1.1 0.1 3  1.1 0 3  1.2 0.1 3  1.2 0 3  1.3 0.1 3  1.3 0 3  1.4 0.1 3  1.4 0 3  1.5 0.1 3  1.5 0 3  1.6 0.1 3  1.6 0 3  1.7 0 3  1.7 0.1 3  0.1 0.2 3  0 0.2 3  0.2 0.2 3  0.3 0.2 3  0.4 0.2 3  0.5 0.2 3  0.6 0.2 3  0.7 0.2 3  0.8 0.2 3  0.9 0.2 3  1 0.2 3  1.1 0.2 3  1.2 0.2 3  1.3 0.2 3  1.4 0.2 3  1.5 0.2 3  1.6 0.2 3  1.7 0.2 3  0.1 0.3 3  0 0.3 3  0.2 0.3 3  0.3 0.3 3  0.4 0.3 3  0.5 0.3 3  0.6 0.3 3  0.7 0.3 3  0.8 0.3 3  0.9 0.3 3  1 0.3 3  1.1 0.3 3  1.2 0.3 3  1.3 0.3 3  1.4 0.3 3  1.5 0.3 3  1.6 0.3 3  1.7 0.3 3  1.8 0.3 3  0.1 0.4 3  0 0.4 3  0.2 0.4 3  0.3 0.4 3  0.4 0.4 3  0.5 0.4 3  0.6 0.4 3  0.7 0.4 3  0.8 0.4 3  0.9 0.4 3  1 0.4 3  1.1 0.4 3  1.2 0.4 3  1.3 0.4 3  1.4 0.4 3  1.5 0.4 3  1.6 0.4 3  1.7 0.4 3  1.8 0.4 3  0.1 0.5 3  0 0.5 3  0.2 0.5 3  0.3 0.5 3  0.4 0.5 3  0.5 0.5 3  0.6 0.5 3  0.7 0.5 3  0.8 0.5 3  0.9 0.5 3  1 0.5 3  1.1 0.5 3  1.2 0.5 3  1.3 0.5 3  1.4 0.5 3  1.5 0.5 3  1.6 0.5 3  1.7 0.5 3  1.8 0.5 3  0.1 0.6 3  0 0.6 3  0.2 0.6 3  0.3 0.6 3  0.4 0.6 3  0.5 0.6 3  0.6 0.6 3  0.7 0.6 3  0.8 0.6 3  0.9 0.6 3  1 0.6 3  1.1 0.6 3  1.2 0.6 3  1.3 0.6 3  1.4 0.6 2.9  1.4 0.6 3  1.5 0.6 2.9  1.5 0.6 3  1.6 0.6 2.9  1.6 0.6 3  1.7 0.6 2.9  1.7 0.6 3  1.8 0.6 2.9  1.8 0.6 3  1.9 0.6 3  0.1 0.7 3  0 0.7 3  0.2 0.7 3  0.3 0.7 3  0.4 0.7 3  0.5 0.7 3  0.6 0.7 3  0.9 0.7 3  1 0.7 3  1.1 0.7 3  1.2 0.7 3  1.3 0.7 3  1.4 0.7 3  1.5 0.7 3  1.6 0.7 3  1.7 0.7 3  1.8 0.7 2.9  1.8 0.7 3  1.9 0.7 3  0.1 0.8 3  0 0.8 3  0.2 0.8 3  0.3 0.8 3  0.4 0.8 3  0.5 0.8 3  1.9 0.8 3  1.8 0.8 3  0.1 0.9 3  0 0.9 3  0.2 0.9 3  0.3 0.9 3  0.4 0.9 2.9  0.4 0.9 3  0.5 0.9 3  0.1 1 3  0 1 3  0 1 2.9  0.2 1 3  0.3 1 3  0.4 1 3  0.5 1 3  0.1 1.1 3  0 1.1 3  0.1 0.1 3.1  0.1 0 3.1  0 0 3.1  0 0.1 3.1  0.2 0.1 3.1  0.2 0 3.1  0.3 0.1 3.1  0.3 0 3.1  0.4 0.1 3.1  0.4 0 3.1  0.5 0.1 3.1  0.5 0 3.1  0.6 0.1 3.1  0.6 0 3.1  0.7 0.1 3.1  0.7 0 3.1  0.8 0.1 3.1  0.8 0 3.1  0.9 0.1 3.1  0.9 0 3.1  1 0.1 3.1  1 0 3.1  1.1 0.1 3.1  1.1 0 3.1  1.2 0.1 3.1  1.2 0 3.1  1.3 0.1 3.1  1.3 0 3.1  1.4 0.1 3.1  1.4 0 3.1  1.5 0.1 3.1  1.5 0 3.1  1.6 0.1 3.1  1.6 0 3.1  1.7 0.1 3.1  1.7 0 3.1  0.1 0.2 3.1  0 0.2 3.1  0.2 0.2 3.1  0.3 0.2 3.1  0.4 0.2 3.1  0.5 0.2 3.1  0.6 0.2 3.1  0.7 0.2 3.1  0.8 0.2 3.1  0.9 0.2 3.1  1 0.2 3.1  1.1 0.2 3.1  1.2 0.2 3.1  1.3 0.2 3.1  1.4 0.2 3.1  1.5 0.2 3.1  1.6 0.2 3.1  1.7 0.2 3.1  1.8 0.2 3.1  0.1 0.3 3.1  0 0.3 3.1  0.2 0.3 3.1  0.3 0.3 3.1  0.4 0.3 3.1  0.5 0.3 3.1  0.6 0.3 3.1  0.7 0.3 3.1  0.8 0.3 3.1  0.9 0.3 3.1  1 0.3 3.1  1.1 0.3 3.1  1.2 0.3 3.1  1.3 0.3 3.1  1.4 0.3 3.1  1.5 0.3 3.1  1.6 0.3 3.1  1.7 0.3 3.1  1.8 0.3 3.1  0.1 0.4 3.1  0 0.4 3.1  0.2 0.4 3.1  0.3 0.4 3.1  0.4 0.4 3.1  0.5 0.4 3.1  0.6 0.4 3.1  0.7 0.4 3.1  0.8 0.4 3.1  0.9 0.4 3.1  1 0.4 3.1  1.1 0.4 3.1  1.2 0.4 3.1  1.3 0.4 3.1  1.4 0.4 3.1  1.5 0.4 3.1  1.6 0.4 3.1  1.7 0.4 3.1  1.8 0.4 3.1  0.1 0.5 3.1  0 0.5 3.1  0.2 0.5 3.1  0.3 0.5 3.1  0.4 0.5 3.1  0.5 0.5 3.1  0.6 0.5 3.1  0.7 0.5 3.1  0.8 0.5 3.1  0.9 0.5 3.1  1 0.5 3.1  1.1 0.5 3.1  1.2 0.5 3.1  1.3 0.5 3.1  1.4 0.5 3.1  1.5 0.5 3.1  1.6 0.5 3.1  1.7 0.5 3.1  1.8 0.5 3.1  1.9 0.5 3.1  0.1 0.6 3.1  0 0.6 3.1  0.2 0.6 3.1  0.3 0.6 3.1  0.4 0.6 3.1  0.5 0.6 3.1  0.6 0.6 3.1  0.7 0.6 3.1  0.8 0.6 3.1  0.9 0.6 3.1  1 0.6 3.1  1.1 0.6 3.1  1.2 0.6 3.1  1.3 0.6 3.1  1.4 0.6 3.1  1.5 0.6 3.1  1.6 0.6 3.1  1.7 0.6 3.1  1.8 0.6 3.1  1.9 0.6 3.1  0.1 0.7 3.1  0 0.7 3.1  0.2 0.7 3.1  0.3 0.7 3.1  0.4 0.7 3.1  0.5 0.7 3.1  0.6 0.7 3.1  0.7 0.7 3  0.7 0.7 3.1  0.8 0.7 3  0.8 0.7 3.1  0.9 0.7 3.1  1 0.7 3.1  1.1 0.7 3.1  1.2 0.7 3.1  1.3 0.7 3.1  1.4 0.7 3.1  1.5 0.7 3.1  1.6 0.7 3.1  1.7 0.7 3.1  1.8 0.7 3.1  1.9 0.7 3.1  0.1 0.8 3.1  0 0.8 3.1  0.2 0.8 3.1  0.3 0.8 3.1  0.4 0.8 3.1  0.5 0.8 3.1  0.6 0.8 3.1  0.7 0.8 3.1  0.8 0.8 3.1  0.9 0.8 3.1  1 0.8 3  1 0.8 3.1  0.9 0.8 3  1.1 0.8 3  1.1 0.8 3.1  1.2 0.8 3  1.2 0.8 3.1  1.3 0.8 3  1.3 0.8 3.1  1.4 0.8 3.1  1.5 0.8 3.1  1.6 0.8 3.1  1.7 0.8 3.1  1.8 0.8 3.1  1.9 0.8 3.1  2 0.8 3.1  0.1 0.9 3.1  0 0.9 3.1  0.2 0.9 3.1  0.3 0.9 3.1  0.4 0.9 3.1  0.5 0.9 3.1  0.6 0.9 3.1  1 0.9 3.1  1.1 0.9 3.1  1.2 0.9 3.1  1.3 0.9 3.1  1.4 0.9 3.1  1.9 0.9 3.1  2 0.9 3.1  0.1 1 3.1  0 1 3.1  0.2 1 3.1  0.3 1 3.1  0.4 1 3.1  0.5 1 3.1  0.6 1 3.1  0.1 1.1 3.1  0 1.1 3.1  0.2 1.1 3  0.2 1.1 3.1  0.3 1.1 3  0.3 1.1 3.1  0.4 1.1 3  0.4 1.1 3.1  0.5 1.1 3.1  0.6 1.1 3.1  0.1 1.2 3  0.1 1.2 3.1  0 1.2 3  0 1.2 3.1  0.2 1.2 3  0.2 1.2 3.1  0.3 1.2 3  0.3 1.2 3.1  0.4 1.2 3.1  0.5 1.2 3.1  0.1 1.3 3  0.1 1.3 3.1  0 1.3 3  0 1.3 3.1  0.2 1.3 3.1  0.3 1.3 3.1  0.4 1.3 3.1  0.1 1.4 3  0.1 1.4 3.1  0 1.4 3  0 1.4 3.1  0.2 1.4 3.1  0.1 1.5 3  0.1 1.5 3.1  0 1.5 3  0 1.5 3.1  0.2 1.5 3.1  0.1 1.6 3.1  0 1.6 3.1  0 1.6 3  0.2 1.6 3.1  0.1 1.7 3.1  0 1.7 3.1  0.1 0.1 3.2  0.1 0 3.2  0 0 3.2  0 0.1 3.2  0.2 0.1 3.2  0.2 0 3.2
[...]
<PointData  Scalars="c_HbO2"> 
<DataArray  type="Float64"  Name="c_HbO2"  format="ascii">2.0000000000000001e-17  2.0000000000000001e-17  2.0000000000000001e-17  -1.0953174741633615e-17  2.0000000000000001e-17  -1.0953174741584419e-17  2.0000000000000001e-17  2.0000000000000001e-17  2.0000000000000001e-17  -1.3134355906884464e-18  -7.1346825974737064e-19  -7.1346825973856259e-19  -1.3134355906828219e-18  4.2788806487219730e-20  2.5319774093974730e-19  2.5319774084801935e-19  4.2788806513301383e-20  4.8036528111327379e-22  4.8036526282489855e-22  -2.3275313017377990e-20  -3.7050153527889705e-22  -3.7050150466950705e-22  1.2030288065031412e-21  3.3425339021008458e-23  3.3425334538662347e-23  -2.2281345195762305e-23  -1.5568812966195060e-24  -1.5568434000909752e-24  -5.5151488740726342e-24  -3.4275982848569220e-26  -3.4287930869165986e-26  7.3367138214840991e-25  1.3898907558747661e-26  1.3898609516726466e-26  -4.8290312426198057e-26  -1.3410358595515558e-27  -1.3444896563729787e-27  9.0149705641603685e-28  1.3497609563587547e-28  7.7984279316348419e-29  2.3375825510797186e-28  -1.4019991133450002e-27  -8.5986674639431566e-28  2.4118354290023230e-28  -2.2337934087294508e-26  -5.3660552819294626e-27  -5.7402720994017680e-18  -5.7402720994247375e-18  2.0000000000000001e-17  2.0000000000000001e-17  1.1057607816539875e-18  -7.5219970779884704e-20  -1.3351888449868293e-20  -5.9982705936459296e-18  2.0000000000000001e-17  5.6338165551935040e-19  -1.0953174741579359e-17  2.0000000000000001e-17  2.0000000000000001e-17  2.0000000000000001e-17  -7.1346825978455043e-19  -1.3134355906982086e-18  2.5319774087639648e-19  4.2788806506259269e-20  -2.3275313011828474e-20  4.8036527077679480e-22  1.2030288579687011e-21  -3.7050148579008844e-22  -2.2281337763106241e-23  3.3425309797682724e-23  -5.5151921566992092e-24  -1.5568426163660557e-24  7.3370314036845045e-25  -3.4282531488789807e-26  -4.8292404296011768e-26  1.3912123501678373e-26  8.7959094122760214e-28  -1.3506167425821629e-27  2.0495200767298914e-28  4.1181515847881853e-29  1.5075601222504427e-29  2.5476093465556998e-28  -1.5302987479214035e-27  -1.0138433268818582e-27  -7.9665812092386621e-25  -8.2112793335676884e-26  1.1778661470353297e-26  -8.4131511565071930e-27  1.8169434489969949e-24  -3.9756664640468376e-24  -4.2550727550886321e-25  -1.9659744683287932e-25  5.2361259366191688e-25  -5.7402720994702541e-18  2.0000000000000001e-17  1.1057607816751308e-18  -7.5219970826766352e-20  -1.3351888418532474e-20  4.1512029094088994e-21  -4.3935952272363872e-22  2.8338837644569218e-23  -9.5129628239280489e-25  -9.5129587433622049e-25  2.8338833879271046e-23  -7.2357806572428864e-26  -7.2363681484458527e-26  1.4498294025292506e-26  1.4497963090744943e-26  -1.2301985042292105e-27  -1.2098966339829384e-27  1.3600307963451696e-28  2.8805578451536510e-30  -1.5500081659469759e-27  2.4450999545255077e-28  -6.0452104241637244e-27  -3.3012978953924416e-26  -4.8562253727627970e-25  -5.9982705938837604e-18  2.0000000000000001e-17  5.6338165553837367e-19  -1.3063995073883149e-19  -1.3063995073762812e-19  1.7748462165548325e-20  -9.8692040690628642e-22  -8.2737277796832906e-24  7.1062416801995138e-23  6.1824483138322081e-25  -2.7423485053524917e-26  -7.0994374797968379e-28  2.7161456842298813e-28  4.6179158894754001e-29  7.2918802787507478e-28  -5.9899183406265502e-18  -5.9899183406878887e-18  2.0000000000000001e-17  2.0000000000000001e-17  6.4801373030612782e-19  -9.3662677082066715e-20  1.4893032489267907e-20  -5.9901057485332904e-18  2.0000000000000001e-17  6.4207927161895002e-19  -1.0953174741603473e-17  2.0000000000000001e-17  2.0000000000000001e-17  2.0000000000000001e-17  -7.1346825976533658e-19  -1.3134355906812065e-18  2.5319774089569155e-19  4.2788806538932472e-20  -2.3275313003046077e-20  4.8036529219067336e-22  1.2030288534243909e-21  -3.7050147488268577e-22  -2.2281345558143180e-23  3.3425311379597129e-23  -5.5152036095813392e-24  -1.5568438197089528e-24  7.3369546699878102e-25  -3.4290528483644950e-26  -4.8290975591034039e-26  1.3897912066612488e-26  8.8034172710846209e-28  -1.3459109006245643e-27  2.0908049327861286e-28  6.7903204569188988e-29  -3.5255424791008486e-29  2.4916679788661591e-30  -4.2723665501493697e-29  -1.7443891064281298e-28  1.5421289430499677e-27  5.8050883283371509e-28  4.2686981452410043e-27  6.7788391398071156e-27  3.8026598020142310e-27  -5.7402720995372464e-18  2.0000000000000001e-17  1.1057607816926026e-18  -7.5219970831537868e-20  -1.3351888418853853e-20  4.1512028930571478e-21  -4.3935952090673550e-22  2.8338834071628601e-23  -9.5129146006049129e-25  -7.2365507744373307e-26  1.4513175177903143e-26  -1.2120601897516808e-27  3.2169576130756618e-29  8.5930798031639442e-29  -7.1968078765531236e-28  2.2500582386015423e-27  -5.9237040843107642e-26  -5.9982705938989460e-18  2.0000000000000001e-17  5.6338165551408067e-19  -1.3063995075782617e-19  1.7748462190600560e-20  -9.8692045053481117e-22  -2.5569734013868317e-22  -2.5569732028076304e-22  7.1062444473606362e-23  -8.2737226161331325e-24  6.1816346794719297e-25  -2.7427692964310212e-26  -7.2457478585044599e-28  2.7055769043736024e-28  -5.4302258786935895e-29  6.8497413098655758e-29  2.6181721148336461e-28  -1.4231159751153796e-27  4.0855726008155740e-26  1.5270804552626434e-27  2.5616645553240720e-26  -5.9899183406983226e-18  2.0000000000000001e-17  6.4801373030845559e-19  -9.3662677030860908e-20  1.4893032425463635e-20  -2.5654937418109564e-21  3.1563424761440529e-22  -1.3422103182461391e-23  -4.8247375831729555e-24  1.2517358537513943e-24  -1.5585961382971993e-25  1.2930896433518197e-26  -6.9059307015921842e-28  6.2231750306342314e-30  2.2297238742498481e-29  1.7420387407274135e-28  -2.9840596675327347e-27  -4.4459600913385681e-27  -5.9901057485655236e-18  2.0000000000000001e-17  6.4207927164580057e-19  -1.0381242340150962e-19  1.3198156597339160e-20  -1.9496129324208605e-21  -5.9901221344045050e-18  -5.9901221343684131e-18  2.0000000000000001e-17  2.0000000000000001e-17  6.4235681668221864e-19  -1.0232466141132680e-19  -5.9901197698072922e-18  2.0000000000000001e-17  2.0000000000000001e-17  6.4234795294726850e-19  -5.9901199159214164e-18  2.0000000000000001e-17  -1.0953174741618417e-17  2.0000000000000001e-17  2.0000000000000001e-17  2.0000000000000001e-17  -7.1346825974415867e-19  -1.3134355907288151e-18  2.5319774087476286e-19  4.2788806524906863e-20  -2.3275312996734386e-20  4.8036528803206305e-22  1.2030288380033106e-21  -3.7050150558546837e-22  -2.2281340293415271e-23  3.3425310949577826e-23  -5.5151870249247294e-24  -1.5568514955277085e-24  7.3369524861471594e-25  -3.4312783110784440e-26  -4.8302870830219471e-26  1.3898605690098104e-26  8.8153562579935939e-28  -1.3367774767854602e-27  2.2734619387203371e-28  7.4195421660959251e-29  -2.3244016381778409e-29  2.5660379733245182e-30  -5.2505858162481086e-30  -2.2434244546525932e-31  -8.0417372535645465e-29  -4.5776661149057529e-29  2.7253179606941439e-28  -9.5894453922880796e-31  6.8698313428050418e-28  1.8539271429030577e-27  -5.7402720994592655e-18  2.0000000000000001e-17  1.1057607817887114e-18  -7.5219970782009787e-20  -1.3351888417771301e-20  4.1512028917297961e-21  -4.3935950966948055e-22  2.8338847996142994e-23  -9.5127889605488362e-25  -7.2346530697557924e-26  1.4522024564435301e-26  -1.2134304656139140e-27  4.5532032087128268e-29  8.5215425070983438e-30  -3.5423385439905493e-29  -2.3834518258787993e-28  -1.1172589979503147e-27  -4.9458897563529549e-27  -5.9982705938960779e-18  2.0000000000000001e-17  5.6338165553621422e-19  -1.3063995072486737e-19  1.7748462177859929e-20  -9.8692045273894019e-22  -2.5569731454293305e-22  7.1062432201707651e-23  -8.2737207379451359e-24  6.1817292053364752e-25  -2.7428310728411181e-26  -7.2271466332145009e-28  2.7087690215095002e-28  -3.5767364221514702e-29  3.7813577520315438e-29  -1.8017072270082897e-28  -1.0585524012345957e-27  6.2251227196467739e-27  -5.9899183406808229e-18  2.0000000000000001e-17  6.4801373030967712e-19  -9.3662677004730312e-20  1.4893032417760719e-20  -2.5654937486335598e-21  3.1563422226505986e-22  -1.3422080266358484e-23  -4.8247163369837872e-24  1.2517392860316723e-24  -1.5587116162077213e-25  1.2936268705057009e-26  -6.8768007532564487e-28  -1.3579780465853931e-29  -1.8274651450796019e-29  4.3864559089188713e-29  -2.7399537848281458e-28  6.4963915718688023e-28  1.2287466983623663e-27  -5.9901057485601071e-18  2.0000000000000001e-17  6.4207927164459647e-19  -1.0381242337716644e-19  1.3198156525468299e-20  -1.9496129527106900e-21  3.1711694236229965e-22  -5.0011821790408562e-23  5.6577337163774236e-24  -1.8216140794075657e-25  -1.8214576483119396e-25  5.6577384948507896e-24  -9.0568914828703088e-26  -9.0608368896020577e-26  2.2534170322092135e-26  2.2526703259313625e-26  -2.9403624023924089e-27  -2.9373253394692725e-27  2.6243361970103052e-28  -1.0624253424057732e-29  -2.9431811006827091e-29  4.1851053186377241e-29  -1.4416145022156423e-28  -1.0150965860158628e-28  -5.9901221343797114e-18  2.0000000000000001e-17  6.4235681659925555e-19  -1.0232466125111257e-19  1.3987273768331109e-20  -1.9640689329191785e-21  -9.6881397412034958e-25  6.5344837119151463e-24  1.0200503264663896e-25  -2.4475344199928256e-27  -1.7323679276225957e-27  4.2775407243347778e-28  -5.9901197698599633e-18  2.0000000000000001e-17  6.4234795302128555e-19  -1.0244803915981483e-19  -1.0244803918716453e-19  1.3797818985770913e-20  -5.9901199159903362e-18  2.0000000000000001e-17  6.4234761861180391e-19  6.4234761865814448e-19  -1.0244088505230218e-19  1.3824951107112739e-20  -5.9901199128717009e-18  2.0000000000000001e-17  6.4234769569002004e-19  -1.0244116736961722e-19  -1.0953174741639262e-17  2.0000000000000001e-17  2.0000000000000001e-17  2.0000000000000001e-17  -7.1346825976350714e-19  -1.3134355907017193e-18  2.5319774084913248e-19  4.2788806507221686e-20  -2.3275313012435945e-20  4.8036525385231302e-22  1.2030288234822675e-21  -3.7050154567433014e-22  -2.2281321143191226e-23  3.3425320493615448e-23  -5.5151734735859413e-24  -1.5568276359619355e-24  7.3369721115570188e-25  -3.4296978312885341e-26  -4.8309747189966456e-26  1.3899733036728922e-26  8.7561102382124928e-28  -1.3454931535663078e-27  2.2414163648367430e-28  5.4363925065699468e-29  -3.0548361708170678e-29  1.9584392334238986e-30  4.5257429176963119e-31  8.7651187217452833e-30  2.2605172391671267e-30  -1.6830400415889699e-30  -1.1046293348286100e-29  5.8086080142630854e-30  -6.4562909920295365e-29  2.2562865477834945e-30  -1.0631653871992309e-29  2.7545845917409075e-28  -5.7402720994098146e-18  2.0000000000000001e-17  1.1057607818142390e-18  -7.5219970821267979e-20  -1.3351888437441835e-20  4.1512029107729423e-21  -4.3935950300187460e-22  2.8338841096208521e-23  -9.5129602621972674e-25  -7.2353174783169332e-26  1.4522859925879581e-26  -1.2150388124640645e-27  5.4891133955292569e-29  1.0126084113956113e-29  5.6160271141631653e-30  8.4871677638807715e-30  4.7644753291191368e-29  4.4469695082658760e-28  -5.9982705938832165e-18  2.0000000000000001e-17  5.6338165554710122e-19  -1.3063995071659812e-19  1.7748462168737966e-20  -9.8692044540896667e-22  -2.5569731329459313e-22  7.1062438318661918e-23  -8.2737116687044920e-24  6.1817768663672232e-25  -2.7420710619987387e-26  -7.1365556208156080e-28  2.6701364793435619e-28  -2.9831607973996935e-29  2.7462614744423560e-31  -2.9865002333057594e-30  2.4743910981827734e-29  3.7941416054028250e-28  1.1713253087575064e-28  -5.9899183406479642e-18  2.0000000000000001e-17  6.4801373034774062e-19  -9.3662677019103912e-20  1.4893032383565059e-20  -2.5654937708545780e-21  3.1563423952348318e-22  -1.3422059146324360e-23  -4.8247093663210631e-24  1.2517578942522102e-24  -1.5585995195991379e-25  1.2920942567557714e-26  -7.0355187819275236e-28  -1.1863843343906573e-29  2.9810892760112942e-32  6.1528604283197169e-31  6.6718544082178684e-30  4.2270617130856392e-29  2.7915211186449947e-29  -5.9901057485071032e-18  2.0000000000000001e-17  6.4207927166179859e-19  -1.0381242338054979e-19  1.3198156521612559e-20  -1.9496129748315005e-21  3.1711694237186940e-22  -5.0011825604652473e-23  5.6577504034657347e-24  -1.8212530819742205e-25  -9.0592131140134064e-26  2.2529842404012390e-26  -2.9394036963254263e-27  2.6923622781152378e-28  -1.4385898205531280e-29  3.4284127649910834e-30  -1.2701260380960854e-32  -2.1933700541355043e-29  -1.0419142318439442e-28  -5.9901221344637151e-18  2.0000000000000001e-17  6.4235681659911178e-19  -1.0232466126520278e-19  1.3987273751718796e-20  -1.9640689450154137e-21  2.6855780747888427e-22  -4.0423624568554391e-23  6.5344959928674832e-24  -9.6879455652092057e-25  1.0203687476458771e-25  -2.4689209020193380e-27  -1.6939701541255398e-27  4.2264081467657622e-28  -4.5742145609396965e-29  -5.3082691029303831e-29  1.1518225706853806e-29  5.2300951660240027e-30  -1.9035694805483478e-30  -4.8420343286757419e-30  -4.8687828028441882e-29  -9.6224887639687961e-30  -5.6975803749232511e-30  -4.8861600490134119e-30  1.6596005264148473e-29  -5.9901197698942649e-18  2.0000000000000001e-17  6.4234795301715761e-19  -1.0244803921426841e-19  1.3797818963049608e-20  -2.0071005002815292e-21  2.8023448589747865e-22  -8.3465601508082238e-25  1.3248754398559445e-25  -1.8697747350720123e-26  1.8300911284900211e-27  -1.4148666791450078e-29  -4.2783482852011648e-29  2.0235528051552538e-29  -4.0778751894224564e-30  7.7752464743903162e-30  -8.9127906622789560e-30  8.0339289440267166e-31  -2.2398361874439229e-29  -5.9901199160006692e-18  2.0000000000000001e-17  6.4234761866564347e-19  -1.0244088503093988e-19  1.3824951135630956e-20  -1.9907908886292014e-21  1.0345555789646057e-30  -1.6167440969845082e-30  -5.9901199129507565e-18  2.0000000000000001e-17  6.4234769584559454e-19  -1.0244116739262831e-19  1.3822459680207954e-20  1.3822459749594741e-20  -1.9943525103226178e-21  -5.9901199124615279e-18  2.0000000000000001e-17  2.0000000000000001e-17  6.4234768986934023e-19  -1.0244117111240332e-19  1.3822625708087258e-20  -1.9938472536938203e-21  -5.9901199126372952e-18  2.0000000000000001e-17  -1.0953174741702740e-17  2.0000000000000001e-17  2.0000000000000001e-17  2.0000000000000001e-17  -7.1346825976297809e-19  -1.3134355907317527e-18  2.5319774089322732e-19  4.2788806507306282e-20  -2.3275313008882012e-20  4.8036527985449755e-22  1.2030288370408226e-21  -3.7050151210525145e-22  -2.2281345348811487e-23  3.3425350475867442e-23  -5.5151909901554081e-24  -1.5568318334465381e-24  7.3368942949078739e-25  -3.4293592803079767e-26  -4.8301654102948612e-26  1.3929979845319894e-26  8.8919144573363859e-28  -1.3351823498677616e-27  2.1981333695516850e-28  4.5163937543115054e-29  -4.9137557613355880e-29  -6.9822068625597091e-30  9.4506976092661978e-30  4.7263446400031861e-30  7.5672001956404160e-30  -8.9982122493867947e-30  -6.9766227798261777e-30  -8.5988955947877032e-30  1.4790208448459040e-30  -2.0037840935647439e-30  -7.9294935170329382e-30  -3.3179612145400117e-30  -5.7402720995174109e-18  2.0000000000000001e-17  1.1057607817514036e-18  -7.5219970818976098e-20  -1.3351888415237460e-20  4.1512029132921241e-21  -4.3935951447260097e-22  2.8338824177575693e-23  -9.5130891658606316e-25  -7.2368438715823488e-26  1.4510523400019494e-26  -1.2019015951481915e-27  5.9070632346245229e-29  8.2689687596106982e-30  4.7173223953152706e-30  -3.7589432008650233e-30  -7.8423012317706449e-31  2.2421357006160019e-29  3.0423536182716246e-29  -5.9982705939280637e-18  2.0000000000000001e-17  5.6338165561095340e-19  -1.3063995072587508e-19  1.7748462165557257e-20  -9.8692045242859219e-22  -2.5569732247854599e-22  7.1062426927871666e-23  -8.2737291463338908e-24  6.1817027173511744e-25  -2.7414729473530776e-26  -6.9224587577796647e-28  2.7712361500787153e-28  -2.8353053004748439e-29  1.3894506034753326e-30  1.4039117860459154e-30  -6.4355308765649778e-30  -1.7747695940456647e-29  5.0488952408215457e-29  -5.9899183407368882e-18  2.0000000000000001e-17  6.4801373030579454e-19  -9.3662677027847743e-20  1.4893032365545397e-20  -2.5654937660757959e-21  3.1563424249943483e-22  -1.3422088259087686e-23  -4.8247270917888182e-24  1.2517635197356473e-24  -1.5584804556472801e-25  1.2945870768833951e-26  -6.8827206695024071e-28  -7.3516721320305645e-30  -4.4286052345728469e-30  -3.3567558109893269e-31  4.2870098275522754e-30  -3.0606623234764938e-29  3.8504491460177466e-29  -5.9901057485171488e-18  2.0000000000000001e-17  6.4207927171407786e-19  -1.0381242340886249e-19  1.3198156493314411e-20  -1.9496129709590433e-21  3.1711697219582431e-22  -5.0011816178925166e-23  5.6577378026231328e-24  -1.8213125038985148e-25  -9.0589633416469294e-26  2.2522391405875693e-26  -2.9464304296280743e-27  2.5578761553669805e-28  -2.1498873235325336e-29  8.8565331835553901e-31  -4.2988603279806383e-30  -1.1651722035742589e-30  1.2878683267160939e-29  2.0740199991154877e-29  -5.9901221344151146e-18  2.0000000000000001e-17  6.4235681666841011e-19  -1.0232466128884026e-19  1.3987273672435759e-20  -1.9640689664627144e-21  2.6855782170471267e-22  -4.0423617923346282e-23  6.5344889956877467e-24  -9.6880760729557206e-25  1.0201076526709270e-25  -2.4565355602005598e-27  -1.6897083799155642e-27  4.1944806391262689e-28  -4.3737984622176822e-29  2.2926479121148276e-29  8.6000748629403089e-30  -3.2344934066386575e-30  -2.8840653253240066e-30  1.0637375464821252e-30  -5.9901197698787958e-18  2.0000000000000001e-17  6.4234795301221615e-19  -1.0244803924213770e-19  1.3797818937714372e-20  -2.0071004856066585e-21  2.8023446407944252e-22  -3.8769621845206713e-23  -3.8769643034071817e-23  5.4592993300195962e-24  5.4593189572011974e-24  -8.3466342764610533e-25  1.3253260559282791e-25  -1.8679818145915103e-26  1.8639605094074125e-27  -1.6070164726266328e-29  -2.1905631996786710e-29  1.5939302846043945e-29  3.3455404012276621e-30  -8.6289708614332408e-30  -1.7062852045868304e-29  2.1234666687873360e-30  -5.9901199160255822e-18  2.0000000000000001e-17  6.4234761867711123e-19  -1.0244088502359110e-19  1.3824951110458495e-20  -1.9907908941730099e-21  2.8075785927661079e-22  -3.9966377142470903e-23  5.5791959340708383e-24  -7.7348005022782490e-25  1.1109755888255484e-25  1.1115650997976231e-25  -7.7348691407636755e-25  -1.7130208241238178e-26  -1.7109826582732846e-26  2.6528873885019029e-27  2.6488598908875098e-27  -3.4998771403936151e-28  -3.5697853244520672e-28  5.7188416424125564e-29  -2.7987115976474706e-29  -7.1694702014936547e-30  -1.3161719674899273e-29  1.0551313185837747e-29  4.2659397378557678e-30  2.1528401626394500e-29  -5.9901199130482355e-18  2.0000000000000001e-17  6.4234769580596574e-19  -1.0244116738769164e-19  1.3822459732927109e-20  -1.9943525286587363e-21  2.7975399996386560e-22  1.1110139974771522e-25  -1.5521324234417351e-26  2.2407502868895697e-27  -3.2994216249912408e-28  4.2629286462219141e-29  -9.8101279966833922e-30  2.0591021699211198e-29  -5.9901199125232401e-18  2.0000000000000001e-17  6.4234768983330281e-19  -1.0244117106736573e-19  1.3822625722407926e-20  -1.9938472697724991e-21  2.8008412584203389e-22  -5.9901199125716634e-18  2.0000000000000001e-17  6.4234769009730534e-19  6.4234769012862558e-19  -1.0244116918041697e-19  -1.0244116917595087e-19  1.3822618060247417e-20  1.3822618078264859e-20  -1.9938969750304113e-21  2.8001666426414241e-22  -5.9901199125754020e-18  -5.9901199125346385e-18  2.0000000000000001e-17  2.0000000000000001e-17  6.4234769005576409e-19  6.4234769010592763e-19  -1.0244116939093605e-19  -1.0244116939968721e-19  1.3822618035113899e-20  -1.9938932878315721e-21  -5.9901199126213716e-18  -5.9901199125849708e-18  2.0000000000000001e-17  2.0000000000000001e-17  6.4234769010937023e-19  -1.0244116938497265e-19  1.3822618070081216e-20  -5.9901199126050128e-18  -5.9901199125581872e-18  2.0000000000000001e-17  2.0000000000000001e-17  6.4234769005063168e-19  -5.9901199125117831e-18  -5.9901199125406389e-18  2.0000000000000001e-17  2.0000000000000001e-17  6.4234769013850916e-19  -5.9901199125024608e-18  2.0000000000000001e-17  2.0000000000000001e-17  6.4234769004455980e-19  -5.9901199125323913e-