<?xml version="1.0"?>
<VTKFile type="UnstructuredGrid"  version="0.1"  >
<UnstructuredGrid>
<Piece  NumberOfPoints="14603" NumberOfCells="76774">
<Points>
<DataArray  type="Float64"  NumberOfComponents="3"  format="ascii">0 2.3 0  0.1 2.3 0  0.1 2.4 0  0.1 2.4 0.1  0 2.4 0  0 2.4 0.1  0.2 2.4 0  0.2 2.4 0.1  0.1 2.5 0  0.1 2.5 0.1  0 2.5 0  0 2.5 0.1  0.2 2.5 0  0.2 2.5 0.1  0.3 2.4 0  0.3 2.5 0  0.3 2.5 0.1  0.3 2.4 0.1  0.4 2.4 0  0.4 2.5 0  0.4 2.5 0.1  0.5 2.4 0  0.5 2.5 0  0.5 2.5 0.1  0.6 2.4 0  0.6 2.5 0  0.6 2.5 0.1  0.7 2.5 0  0.7 2.5 0.1  0.1 2.6 0  0.1 2.6 0.1  0 2.6 0  0 2.6 0.1  0.2 2.6 0  0.2 2.6 0.1  0.3 2.6 0  0.3 2.6 0.1  0.4 2.6 0  0.4 2.6 0.1  0.5 2.6 0  0.5 2.6 0.1  0.6 2.6 0  0.6 2.6 0.1  0.7 2.6 0  0.7 2.6 0.1  0.8 2.5 0  0.8 2.6 0  0.8 2.6 0.1  0.8 2.5 0.1  0.9 2.6 0  0.9 2.6 0.1  1.6 2.5 0  1.6 2.6 0  1.7 2.6 0  1.7 2.6 0.1  0.1 2.7 0  0.1 2.7 0.1  0 2.7 0  0 2.7 0.1  0.2 2.7 0  0.2 2.7 0.1  0.3 2.7 0  0.3 2.7 0.1  0.4 2.7 0  0.4 2.7 0.1  0.5 2.7 0  0.5 2.7 0.1  0.6 2.7 0  0.6 2.7 0.1  0.7 2.7 0  0.7 2.7 0.1  0.8 2.7 0  0.8 2.7 0.1  0.9 2.7 0  0.9 2.7 0.1  1 2.6 0  1 2.7 0  1 2.7 0.1  1 2.6 0.1  1.1 2.6 0  1.1 2.7 0  1.1 2.7 0.1  1.1 2.6 0.1  1.2 2.6 0  1.2 2.7 0  1.2 2.7 0.1  1.2 2.6 0.1  1.3 2.6 0  1.3 2.7 0  1.3 2.7 0.1  1.3 2.6 0.1  1.4 2.6 0  1.4 2.7 0  1.4 2.7 0.1  1.5 2.6 0  1.5 2.7 0  1.5 2.7 0.1  1.6 2.7 0  1.6 2.7 0.1  1.7 2.7 0  1.7 2.7 0.1  1.8 2.7 0.1  0.1 2.8 0  0.1 2.8 0.1  0 2.8 0  0 2.8 0.1  0.2 2.8 0  0.2 2.8 0.1  0.3 2.8 0  0.3 2.8 0.1  0.4 2.8 0  0.4 2.8 0.1  0.5 2.8 0  0.5 2.8 0.1  0.6 2.8 0  0.6 2.8 0.1  0.7 2.8 0  0.7 2.8 0.1  0.8 2.8 0  0.8 2.8 0.1  0.9 2.8 0  0.9 2.8 0.1  1 2.8 0  1 2.8 0.1  1.1 2.8 0  1.1 2.8 0.1  1.2 2.8 0  1.2 2.8 0.1  1.3 2.8 0  1.3 2.8 0.1  1.4 2.8 0  1.4 2.8 0.1  1.5 2.8 0  1.5 2.8 0.1  1.6 2.8 0  1.6 2.8 0.1  1.7 2.8 0  1.7 2.8 0.1  1.8 2.8 0.1  1.8 2.8 0  0.1 2.9 0  0.1 2.9 0.1  0 2.9 0  0 2.9 0.1  0.2 2.9 0  0.2 2.9 0.1  0.3 2.9 0  0.3 2.9 0.1  0.4 2.9 0  0.4 2.9 0.1  0.5 2.9 0  0.5 2.9 0.1  0.6 2.9 0  0.6 2.9 0.1  0.7 2.9 0  0.7 2.9 0.1  0.8 2.9 0  0.8 2.9 0.1  0.9 2.9 0  0.9 2.9 0.1  1 2.9 0  1 2.9 0.1  1.1 2.9 0  1.1 2.9 0.1  1.2 2.9 0  1.2 2.9 0.1  1.3 2.9 0  1.3 2.9 0.1  1.4 2.9 0  1.4 2.9 0.1  1.5 2.9 0  1.5 2.9 0.1  1.6 2.9 0  1.6 2.9 0.1  1.7 2.9 0  1.7 2.9 0.1  1.8 2.9 0  1.8 2.9 0.1  0.1 3 0  0.1 3 0.1  0 3 0  0 3 0.1  0.2 3 0  0.2 3 0.1  0.3 3 0  0.3 3 0.1  0.4 3 0  0.4 3 0.1  0.5 3 0  0.5 3 0.1  0.6 3 0  0.6 3 0.1  0.7 3 0  0.7 3 0.1  0.8 3 0  0.8 3 0.1  0.9 3 0  0.9 3 0.1  1 3 0  1 3 0.1  1.1 3 0  1.1 3 0.1  1.2 3 0  1.2 3 0.1  1.3 3 0  1.3 3 0.1  1.4 3 0  1.4 3 0.1  1.5 3 0  1.5 3 0.1  1.6 3 0  1.6 3 0.1  1.7 3 0  1.7 3 0.1  1.8 3 0  1.8 3 0.1  1.9 3 0  1.9 3 0.1  0.1 3.1 0  0.1 3.1 0.1  0 3.1 0  0 3.1 0.1  0.2 3.1 0  0.2 3.1 0.1  0.3 3.1 0  0.3 3.1 0.1  0.4 3.1 0  0.4 3.1 0.1  0.5 3.1 0  0.5 3.1 0.1  0.6 3.1 0  0.6 3.1 0.1  0.7 3.1 0  0.7 3.1 0.1  0.8 3.1 0  0.8 3.1 0.1  0.9 3.1 0  0.9 3.1 0.1  1 3.1 0  1 3.1 0.1  1.1 3.1 0  1.1 3.1 0.1  1.2 3.1 0  1.2 3.1 0.1  1.3 3.1 0  1.3 3.1 0.1  1.4 3.1 0  1.4 3.1 0.1  1.5 3.1 0  1.5 3.1 0.1  1.6 3.1 0  1.6 3.1 0.1  1.7 3.1 0  1.7 3.1 0.1  1.8 3.1 0  1.8 3.1 0.1  1.9 3.1 0  1.9 3.1 0.1  0.1 3.2 0  0.1 3.2 0.1  0 3.2 0  0 3.2 0.1  0.2 3.2 0  0.2 3.2 0.1  0.3 3.2 0  0.3 3.2 0.1  0.4 3.2 0  0.4 3.2 0.1  0.5 3.2 0  0.5 3.2 0.1  0.6 3.2 0  0.6 3.2 0.1  0.7 3.2 0  0.7 3.2 0.1  0.8 3.2 0  0.8 3.2 0.1  0.9 3.2 0  0.9 3.2 0.1  1 3.2 0  1 3.2 0.1  1.1 3.2 0  1.1 3.2 0.1  1.2 3.2 0  1.2 3.2 0.1  1.3 3.2 0  1.3 3.2 0.1  1.4 3.2 0  1.4 3.2 0.1  1.5 3.2 0  1.5 3.2 0.1  1.6 3.2 0  1.6 3.2 0.1  1.7 3.2 0  1.7 3.2 0.1  1.8 3.2 0  1.8 3.2 0.1  1.9 3.2 0  1.9 3.2 0.1  2 3.2 0  2 3.2 0.1  0.1 3.3 0  0.1 3.3 0.1  0 3.3 0  0 3.3 0.1  0.2 3.3 0  0.2 3.3 0.1  0.3 3.3 0  0.3 3.3 0.1  0.4 3.3 0  0.4 3.3 0.1  0.5 3.3 0  0.5 3.3 0.1  0.6 3.3 0  0.6 3.3 0.1  0.7 3.3 0  0.7 3.3 0.1  0.8 3.3 0  0.8 3.3 0.1  0.9 3.3 0  0.9 3.3 0.1  1 3.3 0  1 3.3 0.1  1.1 3.3 0  1.1 3.3 0.1  1.2 3.3 0  1.2 3.3 0.1  1.3 3.3 0  1.3 3.3 0.1  1.4 3.3 0  1.4 3.3 0.1  1.5 3.3 0  1.5 3.3 0.1  1.6 3.3 0  1.6 3.3 0.1  1.7 3.3 0  1.7 3.3 0.1  1.8 3.3 0  1.8 3.3 0.1  1.9 3.3 0  1.9 3.3 0.1  2 3.3 0  2 3.3 0.1  0.1 3.4 0  0.1 3.4 0.1  0 3.4 0  0 3.4 0.1  0.2 3.4 0  0.2 3.4 0.1  0.3 3.4 0  0.3 3.4 0.1  0.4 3.4 0  0.4 3.4 0.1  0.5 3.4 0  0.5 3.4 0.1  0.6 3.4 0  0.6 3.4 0.1  0.7 3.4 0  0.7 3.4 0.1  0.8 3.4 0  0.8 3.4 0.1  0.9 3.4 0  0.9 3.4 0.1  1 3.4 0  1 3.4 0.1  1.1 3.4 0  1.1 3.4 0.1  1.2 3.4 0  1.2 3.4 0.1  1.3 3.4 0  1.3 3.4 0.1  1.4 3.4 0  1.4 3.4 0.1  1.5 3.4 0  1.5 3.4 0.1  1.6 3.4 0  1.6 3.4 0.1  1.7 3.4 0  1.7 3.4 0.1  1.8 3.4 0  1.8 3.4 0.1  1.9 3.4 0  1.9 3.4 0.1  2 3.4 0  2 3.4 0.1  0.1 3.5 0  0.1 3.5 0.1  0 3.5 0  0 3.5 0.1  0.2 3.5 0  0.2 3.5 0.1  0.3 3.5 0  0.3 3.5 0.1  0.4 3.5 0  0.4 3.5 0.1  0.5 3.5 0  0.5 3.5 0.1  0.6 3.5 0  0.6 3.5 0.1  0.7 3.5 0  0.7 3.5 0.1  0.8 3.5 0  0.8 3.5 0.1  0.9 3.5 0  0.9 3.5 0.1  1 3.5 0  1 3.5 0.1  1.1 3.5 0  1.1 3.5 0.1  1.2 3.5 0  1.2 3.5 0.1  1.3 3.5 0  1.3 3.5 0.1  1.4 3.5 0  1.4 3.5 0.1  1.5 3.5 0  1.5 3.5 0.1  1.6 3.5 0  1.6 3.5 0.1  1.7 3.5 0  1.7 3.5 0.1  1.8 3.5 0  1.8 3.5 0.1  1.9 3.5 0  1.9 3.5 0.1  2 3.5 0  2 3.5 0.1  2.1 3.5 0  2.1 3.5 0.1  0.1 3.6 0  0.1 3.6 0.1  0 3.6 0  0 3.6 0.1  0.2 3.6 0  0.2 3.6 0.1  0.3 3.6 0  0.3 3.6 0.1  0.4 3.6 0  0.4 3.6 0.1  0.5 3.6 0  0.5 3.6 0.1  0.6 3.6 0  0.6 3.6 0.1  0.7 3.6 0  0.7 3.6 0.1  0.8 3.6 0  0.8 3.6 0.1  0.9 3.6 0  0.9 3.6 0.1  1 3.6 0  1 3.6 0.1  1.1 3.6 0  1.1 3.6 0.1  1.2 3.6 0  1.2 3.6 0.1  1.3 3.6 0  1.3 3.6 0.1  1.4 3.6 0  1.4 3.6 0.1  1.5 3.6 0  1.5 3.6 0.1  1.6 3.6 0  1.6 3.6 0.1  1.7 3.6 0  1.7 3.6 0.1  1.8 3.6 0  1.8 3.6 0.1  1.9 3.6 0  1.9 3.6 0.1  2 3.6 0  2 3.6 0.1  2.1 3.6 0  2.1 3.6 0.1  0.1 3.7 0  0.1 3.7 0.1  0 3.7 0  0 3.7 0.1  0.2 3.7 0  0.2 3.7 0.1  0.3 3.7 0  0.3 3.7 0.1  0.4 3.7 0  0.4 3.7 0.1  0.5 3.7 0  0.5 3.7 0.1  0.6 3.7 0  0.6 3.7 0.1  0.7 3.7 0  0.7 3.7 0.1  0.8 3.7 0  0.8 3.7 0.1  0.9 3.7 0  0.9 3.7 0.1  1 3.7 0  1 3.7 0.1  1.1 3.7 0  1.1 3.7 0.1  1.2 3.7 0  1.2 3.7 0.1  1.3 3.7 0  1.3 3.7 0.1  1.4 3.7 0  1.4 3.7 0.1  1.5 3.7 0  1.5 3.7 0.1  1.6 3.7 0  1.6 3.7 0.1  1.7 3.7 0  1.7 3.7 0.1  1.8 3.7 0  1.8 3.7 0.1  1.9 3.7 0  1.9 3.7 0.1  2 3.7 0  2 3.7 0.1  2.1 3.7 0  2.1 3.7 0.1  0.1 3.8 0  0.1 3.8 0.1  0 3.8 0  0 3.8 0.1  0.2 3.8 0  0.2 3.8 0.1  0.3 3.8 0  0.3 3.8 0.1  0.4 3.8 0  0.4 3.8 0.1  0.5 3.8 0  0.5 3.8 0.1  0.6 3.8 0  0.6 3.8 0.1  0.7 3.8 0  0.7 3.8 0.1  0.8 3.8 0  0.8 3.8 0.1  0.9 3.8 0  0.9 3.8 0.1  1 3.8 0  1 3.8 0.1  1.1 3.8 0  1.1 3.8 0.1  1.2 3.8 0  1.2 3.8 0.1  1.3 3.8 0  1.3 3.8 0.1  1.4 3.8 0  1.4 3.8 0.1  1.5 3.8 0  1.5 3.8 0.1  1.6 3.8 0  1.6 3.8 0.1  1.7 3.8 0  1.7 3.8 0.1  1.8 3.8 0  1.8 3.8 0.1  1.9 3.8 0  1.9 3.8 0.1  2 3.8 0  2 3.8 0.1  2.1 3.8 0  2.1 3.8 0.1  2.2 3.8 0.1  0.1 3.9 0  0.1 3.9 0.1  0 3.9 0  0 3.9 0.1  0.2 3.9 0  0.2 3.9 0.1  0.3 3.9 0  0.3 3.9 0.1  0.4 3.9 0  0.4 3.9 0.1  0.5 3.9 0  0.5 3.9 0.1  0.6 3.9 0  0.6 3.9 0.1  0.7 3.9 0  0.7 3.9 0.1  0.8 3.9 0  0.8 3.9 0.1  0.9 3.9 0  0.9 3.9 0.1  1 3.9 0  1 3.9 0.1  1.1 3.9 0  1.1 3.9 0.1  1.2 3.9 0  1.2 3.9 0.1  1.3 3.9 0  1.3 3.9 0.1  1.4 3.9 0  1.4 3.9 0.1  1.5 3.9 0  1.5 3.9 0.1  1.6 3.9 0  1.6 3.9 0.1  1.7 3.9 0  1.7 3.9 0.1  1.8 3.9 0  1.8 3.9 0.1  1.9 3.9 0  1.9 3.9 0.1  2 3.9 0  2 3.9 0.1  2.1 3.9 0  2.1 3.9 0.1  2.2 3.9 0.1  0.1 4 0  0.1 4 0.1  0 4 0  0 4 0.1  0.2 4 0  0.2 4 0.1  0.3 4 0  0.3 4 0.1  0.4 4 0  0.4 4 0.1  0.5 4 0  0.5 4 0.1  0.6 4 0  0.6 4 0.1  0.7 4 0  0.7 4 0.1  0.8 4 0  0.8 4 0.1  0.9 4 0  0.9 4 0.1  1 4 0  1 4 0.1  1.1 4 0  1.1 4 0.1  1.2 4 0  1.2 4 0.1  1.3 4 0  1.3 4 0.1  1.4 4 0  1.4 4 0.1  1.5 4 0  1.5 4 0.1  1.6 4 0  1.6 4 0.1  1.7 4 0  1.7 4 0.1  1.8 4 0  1.8 4 0.1  1.9 4 0  1.9 4 0.1  2 4 0  2 4 0.1  2.1 4 0  2.1 4 0.1  2.2 4 0.1  2.2 4 0  0.1 4.1 0  0.1 4.1 0.1  0 4.1 0  0 4.1 0.1  0.2 4.1 0  0.2 4.1 0.1  0.3 4.1 0  0.3 4.1 0.1  0.4 4.1 0  0.4 4.1 0.1  0.5 4.1 0  0.5 4.1 0.1  0.6 4.1 0  0.6 4.1 0.1  0.7 4.1 0  0.7 4.1 0.1  0.8 4.1 0  0.8 4.1 0.1  0.9 4.1 0  0.9 4.1 0.1  1 4.1 0  1 4.1 0.1  1.1 4.1 0  1.1 4.1 0.1  1.2 4.1 0  1.2 4.1 0.1  1.3 4.1 0  1.3 4.1 0.1  1.4 4.1 0  1.4 4.1 0.1  1.5 4.1 0  1.5 4.1 0.1  1.6 4.1 0  1.6 4.1 0.1  1.7 4.1 0  1.7 4.1 0.1  1.8 4.1 0  1.8 4.1 0.1  1.9 4.1 0  1.9 4.1 0.1  2 4.1 0  2 4.1 0.1  2.1 4.1 0  2.1 4.1 0.1  2.2 4.1 0  2.2 4.1 0.1  2.3 4.1 0  2.3 4.1 0.1  0.1 4.2 0  0.1 4.2 0.1  0 4.2 0  0 4.2 0.1  0.2 4.2 0  0.2 4.2 0.1  0.3 4.2 0  0.3 4.2 0.1  0.4 4.2 0  0.4 4.2 0.1  0.5 4.2 0  0.5 4.2 0.1  0.6 4.2 0  0.6 4.2 0.1  0.7 4.2 0  0.7 4.2 0.1  0.8 4.2 0  0.8 4.2 0.1  0.9 4.2 0  0.9 4.2 0.1  1 4.2 0  1 4.2 0.1  1.1 4.2 0  1.1 4.2 0.1  1.2 4.2 0  1.2 4.2 0.1  1.3 4.2 0  1.3 4.2 0.1  1.4 4.2 0  1.4 4.2 0.1  1.5 4.2 0  1.5 4.2 0.1  1.6 4.2 0  1.6 4.2 0.1  1.7 4.2 0  1.7 4.2 0.1  1.8 4.2 0  1.8 4.2 0.1  1.9 4.2 0  1.9 4.2 0.1  2 4.2 0  2 4.2 0.1  2.1 4.2 0  2.1 4.2 0.1  2.2 4.2 0  2.2 4.2 0.1  2.3 4.2 0  2.3 4.2 0.1  2.4 4.2 0  2.4 4.2 0.1  0.1 4.3 0  0.1 4.3 0.1  0 4.3 0  0 4.3 0.1  0.2 4.3 0  0.2 4.3 0.1  0.3 4.3 0  0.3 4.3 0.1  0.4 4.3 0  0.4 4.3 0.1  0.5 4.3 0  0.5 4.3 0.1  0.6 4.3 0  0.6 4.3 0.1  0.7 4.3 0  0.7 4.3 0.1  0.8 4.3 0  0.8 4.3 0.1  0.9 4.3 0  0.9 4.3 0.1  1 4.3 0  1 4.3 0.1  1.1 4.3 0  1.1 4.3 0.1  1.2 4.3 0  1.2 4.3 0.1  1.3 4.3 0  1.3 4.3 0.1  1.4 4.3 0  1.4 4.3 0.1  1.5 4.3 0  1.5 4.3 0.1  1.6 4.3 0  1.6 4.3 0.1  1.7 4.3 0  1.7 4.3 0.1  1.8 4.3 0  1.8 4.3 0.1  1.9 4.3 0  1.9 4.3 0.1  2 4.3 0  2 4.3 0.1  2.1 4.3 0  2.1 4.3 0.1  2.2 4.3 0  2.2 4.3 0.1  2.3 4.3 0  2.3 4.3 0.1  2.4 4.3 0  2.4 4.3 0.1  0.1 4.4 0  0.1 4.4 0.1  0 4.4 0  0 4.4 0.1  0.2 4.4 0  0.2 4.4 0.1  0.3 4.4 0  0.3 4.4 0.1  0.4 4.4 0  0.4 4.4 0.1  0.5 4.4 0  0.5 4.4 0.1  0.6 4.4 0  0.6 4.4 0.1  0.7 4.4 0  0.7 4.4 0.1  0.8 4.4 0  0.8 4.4 0.1  0.9 4.4 0  0.9 4.4 0.1  1 4.4 0  1 4.4 0.1  1.1 4.4 0  1.1 4.4 0.1  1.2 4.4 0  1.2 4.4 0.1  1.3 4.4 0  1.3 4.4 0.1  1.4 4.4 0  1.4 4.4 0.1  1.5 4.4 0  1.5 4.4 0.1  1.6 4.4 0  1.6 4.4 0.1  1.7 4.4 0  1.7 4.4 0.1  1.8 4.4 0  1.8 4.4 0.1  1.9 4.4 0  1.9 4.4 0.1  2 4.4 0  2 4.4 0.1  2.1 4.4 0  2.1 4.4 0.1  2.2 4.4 0  2.2 4.4 0.1  2.3 4.4 0  2.3 4.4
[...]
<PointData  Scalars="c_HbO2"> 
<DataArray  type="Float64"  Name="c_HbO2"  format="ascii">2.0000000000000001e-17  2.0000000000000001e-17  2.0000000000000001e-17  -1.0953174741593159e-17  2.0000000000000001e-17  2.0000000000000001e-17  -1.3134355906371302e-18  -7.1346825975407192e-19  2.0000000000000001e-17  -1.0953174741588560e-17  2.0000000000000001e-17  2.0000000000000001e-17  -1.3134355908113564e-18  -7.1346825982893522e-19  4.2788806592566298e-20  4.2788806538598636e-20  2.5319774087141708e-19  2.5319774091742259e-19  4.8036530863431739e-22  4.8036526819106204e-22  -2.3275313025810511e-20  -3.7050161054335262e-22  -3.7050150614822905e-22  1.2030288274325778e-21  3.3425341704377985e-23  3.3425350687254616e-23  -2.2281363036254981e-23  -1.5568309943915049e-24  -5.5151993455287595e-24  2.0000000000000001e-17  -1.0953174741560134e-17  2.0000000000000001e-17  2.0000000000000001e-17  -1.3134355907384734e-18  -7.1346825977667762e-19  4.2788806552809754e-20  2.5319774087092092e-19  4.8036526243111067e-22  -2.3275313003728560e-20  -3.7050151349259748e-22  1.2030288296355302e-21  3.3425334061638387e-23  -2.2281344634567974e-23  -1.5568597481480916e-24  -5.5151965821167577e-24  -3.4282747401447165e-26  -3.4288490929012851e-26  7.3368314605100361e-25  7.3369506604392940e-25  1.3937452619621420e-26  -4.8280212441935157e-26  2.0753955769525378e-30  -1.3041895825793456e-30  3.3592977374304996e-30  -1.5405434682040867e-30  2.0000000000000001e-17  -1.0953174741565971e-17  2.0000000000000001e-17  2.0000000000000001e-17  -1.3134355907507838e-18  -7.1346825977901271e-19  4.2788806557501879e-20  2.5319774089222098e-19  4.8036526938543493e-22  -2.3275312992052258e-20  -3.7050150039645949e-22  1.2030288298601233e-21  3.3425320438656215e-23  -2.2281343478243148e-23  -1.5568545514285852e-24  -5.5151818113452173e-24  -3.4287087003088661e-26  7.3368240499536576e-25  1.3930493385189564e-26  -4.8287862644346537e-26  -1.3336480028510078e-27  -1.3524471132902041e-27  8.9175239478251051e-28  8.6525760863799356e-28  5.8291761404789853e-29  5.8800182756339444e-29  2.1031747709805265e-28  2.1334919380881471e-28  1.0773865426763177e-29  -8.6191960262598241e-30  -3.4098630163590037e-29  -3.3203631613562611e-29  -2.5059250935682700e-31  -4.8010806127177578e-30  1.0848885166098445e-30  1.0127797167337778e-31  5.9400393819116034e-30  -2.8603325614734572e-30  -3.7578583812843039e-30  -5.3557870811383321e-30  1.9558306779822700e-30  4.7265503855138026e-30  -1.6822029614719687e-31  -3.4965414737779138e-30  -5.1993549262900780e-30  4.9904909729515636e-31  2.3182108562409083e-30  2.0000000000000001e-17  -1.0953174741553501e-17  2.0000000000000001e-17  2.0000000000000001e-17  -1.3134355907286723e-18  -7.1346825976867971e-19  4.2788806558599906e-20  2.5319774087386783e-19  4.8036529281205688e-22  -2.3275312973031945e-20  -3.7050151637646617e-22  1.2030288176512834e-21  3.3425320692922267e-23  -2.2281339669626560e-23  -1.5568641020324892e-24  -5.5151854237441938e-24  -3.4292454816753686e-26  7.3366951315768867e-25  1.3924112636440123e-26  -4.8286882151037282e-26  -1.3497193570741045e-27  8.8938473987472496e-28  5.8738458040089751e-29  2.1580499549754072e-28  -2.3664708374027446e-30  -3.1928681294585764e-29  9.4278164900396699e-31  2.3438243785010360e-30  -2.4460662277553933e-30  -8.0364346205241855e-31  -2.7473539062271739e-30  -2.9054513400227183e-30  -1.8535420076564774e-30  2.2744482650804881e-31  6.3852050404603642e-31  -1.7469326088783303e-31  -1.0271705066360428e-30  2.5430985104069424e-30  2.0000000000000001e-17  -1.0953174741552251e-17  2.0000000000000001e-17  2.0000000000000001e-17  -1.3134355907107067e-18  -7.1346825977336675e-19  4.2788806508938111e-20  2.5319774083032597e-19  4.8036523503590693e-22  -2.3275313011378218e-20  -3.7050152964976347e-22  1.2030288198694447e-21  3.3425354589708928e-23  -2.2281299367976172e-23  -1.5568638867303002e-24  -5.5152075327265372e-24  -3.4296186005092454e-26  7.3367075648353794e-25  1.3934309284175045e-26  -4.8284791482150913e-26  -1.3440401529722796e-27  8.9089489083487543e-28  5.7474024055412955e-29  2.0985661900511443e-28  3.4762456440669936e-31  -3.3860167224713968e-29  7.3858808158703433e-30  1.0331539904895238e-29  4.4480228772326327e-30  1.6722683729715540e-31  -5.2019085316587342e-30  -3.9017995946993383e-30  -4.3817988467882461e-31  -1.4044234762802288e-31  3.5049472839947110e-30  3.3008544983862781e-30  2.9958234741205865e-30  -1.5602868526035018e-30  2.0000000000000001e-17  -1.0953174741568672e-17  2.0000000000000001e-17  2.0000000000000001e-17  -1.3134355907723347e-18  -7.1346825980873337e-19  4.2788806456338575e-20  2.5319774082909530e-19  4.8036522586562244e-22  -2.3275313007407730e-20  -3.7050152391557080e-22  1.2030288326335012e-21  3.3425380928088407e-23  -2.2281307000232787e-23  -1.5568551364048210e-24  -5.5152022383206029e-24  -3.4297551374381616e-26  7.3366498332492642e-25  1.3932863118852433e-26  -4.8286030429596479e-26  -1.3337607361973718e-27  8.9769924169057824e-28  6.2440204313317574e-29  2.0832042611571156e-28  -7.2866603962606079e-30  -3.7256323268117856e-29  8.0519736982561185e-30  5.3122924091572402e-30  2.5824591105414094e-30  2.4218310731251520e-30  -7.9412413418861302e-30  -5.2525979505232877e-30  2.6065119529199387e-30  3.2507120115649104e-30  4.6412137884298006e-30  4.8897473969126772e-30  7.1377928361787707e-31  8.9955038646519214e-31  -8.7498064082475936e-32  7.4051487799959687e-32  2.0000000000000001e-17  -1.0953174741560822e-17  2.0000000000000001e-17  2.0000000000000001e-17  -1.3134355907327913e-18  -7.1346825980635697e-19  4.2788806461686395e-20  2.5319774083036473e-19  4.8036520604949151e-22  -2.3275313027340693e-20  -3.7050154104338715e-22  1.2030288235402376e-21  3.3425335564058294e-23  -2.2281332919276829e-23  -1.5568632690047654e-24  -5.5151885086148859e-24  -3.4301050168492665e-26  7.3366555887648386e-25  1.3915849779995949e-26  -4.8293241497874260e-26  -1.3501393664687571e-27  8.8779889405074478e-28  6.4351563728396874e-29  2.1950020387121559e-28  -5.0090111863447561e-30  -3.5464019249710723e-29  3.7212762369786619e-30  6.1654484748480677e-30  2.0534189988539597e-30  9.0012718140354458e-31  -8.7349974546193642e-30  -5.0991976692088587e-30  2.9387188090485015e-31  1.1792601868140612e-30  3.2712782159825197e-30  3.1627139968306180e-30  -3.4736985903155457e-30  -3.0807743440859913e-30  -2.3514056105789057e-30  -2.6664078521888568e-30  2.0000000000000001e-17  -1.0953174741565070e-17  2.0000000000000001e-17  2.0000000000000001e-17  -1.3134355907629751e-18  -7.1346825979982903e-19  4.2788806458182827e-20  2.5319774082307133e-19  4.8036520376789770e-22  -2.3275313033918664e-20  -3.7050154990128515e-22  1.2030288057982507e-21  3.3425326607012698e-23  -2.2281344396497237e-23  -1.5568404922487508e-24  -5.5151866760461339e-24  -3.4283365861594775e-26  7.3367451900211771e-25  1.3918496483382123e-26  -4.8284788489468134e-26  -1.3502316561021080e-27  8.8653551337106415e-28  6.8020448683819394e-29  2.1660664500035258e-28  -1.7586781466911770e-30  -2.9913892028378082e-29  2.7736426732586284e-30  2.6222709511514039e-30  5.0550248806675634e-30  2.2462013310387725e-30  -5.3254027450024864e-30  -2.9738069917291214e-30  6.0591286661157468e-31  -2.2443183800491900e-30  5.8169016167170602e-30  4.2806355563055295e-30  -5.1599318736850920e-30  -8.7777499641724001e-30  -1.5575259809845544e-30  -2.5846063448623125e-31  1.7474169018480877e-31  2.8485274089578657e-31  2.0000000000000001e-17  -1.0953174741568811e-17  2.0000000000000001e-17  2.0000000000000001e-17  -1.3134355907455327e-18  -7.1346825980556560e-19  4.2788806452896342e-20  2.5319774080844664e-19  4.8036518565331703e-22  -2.3275313042538074e-20  -3.7050154989016906e-22  1.2030288088169709e-21  3.3425314034062225e-23  -2.2281343288367881e-23  -1.5568635937298318e-24  -5.5151885997449187e-24  -3.4310548192809942e-26  7.3367883145455325e-25  1.3920760245796015e-26  -4.8277375721088260e-26  -1.3467735674846542e-27  8.9008804008560587e-28  6.6376092818009485e-29  2.1241397170659805e-28  6.4488957116229398e-32  -2.6216276805627535e-29  -1.8698317717445374e-30  -1.2355607205057661e-30  3.0388622856122868e-30  4.2623078353707631e-30  -3.9635743089051564e-30  -6.2795674231849011e-31  -3.3221309488115878e-30  -1.9993489557628683e-30  6.8034277311589031e-30  3.3117493735541271e-30  -3.8629981203478438e-31  4.4579373111638390e-31  -1.9541980964156953e-31  -1.4346922717874963e-30  8.7361390518583065e-31  -1.7510036130924398e-30  2.0000000000000001e-17  -1.0953174741570164e-17  2.0000000000000001e-17  2.0000000000000001e-17  -1.3134355907547681e-18  -7.1346825978558523e-19  4.2788806475436258e-20  2.5319774082987622e-19  4.8036523382839268e-22  -2.3275313018247017e-20  -3.7050150507735939e-22  1.2030288145954140e-21  3.3425349876444798e-23  -2.2281335191132638e-23  -1.5568399657953957e-24  -5.5151881262742098e-24  -3.4277649514689803e-26  7.3367453432268612e-25  1.3934950864732233e-26  -4.8301313521141366e-26  -1.3511856186830704e-27  8.7646197747374061e-28  7.0391846822313012e-29  2.2015551880200467e-28  9.0877444412507489e-30  -2.9876254324817606e-29  -2.6541345778581392e-30  -1.5769388243236427e-30  3.1174089588764347e-31  -8.7417964510228561e-31  -7.1235853760468610e-31  1.4393457788201150e-30  -5.2016677675038954e-30  -3.5393308893382007e-30  1.0870452090521746e-30  -1.0607937636280740e-31  2.3932191872114005e-30  3.5805078129242567e-30  -5.0297402698184536e-31  -7.5845138052626380e-31  -1.7859367115013365e-30  8.0085512825619648e-31  2.0000000000000001e-17  -1.0953174741562086e-17  2.0000000000000001e-17  2.0000000000000001e-17  -1.3134355907463503e-18  -7.1346825978206271e-19  4.2788806509757660e-20  2.5319774084328329e-19  4.8036524267772734e-22  -2.3275312986868921e-20  -3.7050146472711719e-22  1.2030288466842167e-21  3.3425382430997326e-23  -2.2281318125820793e-23  -1.5568328338128338e-24  -5.5151767336517729e-24  -3.4280476874784554e-26  7.3368165017773735e-25  1.3924083110306610e-26  -4.8286336789167623e-26  -1.3602538967665180e-27  8.8900592265206477e-28  6.2300459549028113e-29  2.1772717048237775e-28  5.3171163921021279e-30  -2.7715776671126708e-29  -3.5080586306629188e-30  3.8757627098688593e-30  -3.9293527919300966e-30  -2.4363656237767310e-30  5.3392767070869636e-30  4.8157588695669311e-30  -1.3097283035727651e-30  -1.5898993699062649e-30  -1.6547603426403646e-30  -2.5494578733543897e-30  2.2811040175552430e-30  1.7173761774283432e-30  -7.1165486981666824e-31  -7.7726306907053906e-31  -2.3818557658632118e-30  -1.5141260462650738e-30  -3.8679904964379188e-31  6.5742538477440681e-32  2.0000000000000001e-17  -1.0953174741561640e-17  2.0000000000000001e-17  2.0000000000000001e-17  -1.3134355907338596e-18  -7.1346825978886808e-19  4.2788806519614744e-20  2.5319774086056346e-19  4.8036528986841713e-22  -2.3275312973491824e-20  -3.7050145731281710e-22  1.2030288761408236e-21  3.3425430268600929e-23  -2.2281288306038793e-23  -1.5568158232355432e-24  -5.5151703314397792e-24  -3.4275536999913309e-26  7.3368275833451675e-25  1.3926810667857782e-26  -4.8298831935816538e-26  -1.3655266645755451e-27  8.7690160045232941e-28  7.1168903916820051e-29  2.1842682645140770e-28  1.4648719478220328e-29  -2.7730815691030586e-29  -4.9487193384289030e-30  -2.7418578212194372e-30  -6.6856005534957490e-30  -5.1067109349303575e-30  2.5149148417386231e-30  -1.9442409915511174e-31  1.2185244775450137e-30  1.8180291172618469e-30  -1.6735768072446797e-30  -2.3483602511949523e-30  2.0399902298257510e-30  1.2721689905062588e-30  -3.0073412807684524e-31  4.0436051513651472e-31  -2.1401988564105364e-30  -1.8789780150118448e-31  9.4954676136821392e-31  3.6581942002045863e-31  2.0000000000000001e-17  -1.0953174741557339e-17  2.0000000000000001e-17  2.0000000000000001e-17  -1.3134355907376957e-18  -7.1346825980512139e-19  4.2788806479143890e-20  2.5319774083047152e-19  4.8036526302375993e-22  -2.3275312995161924e-20  -3.7050146788295338e-22  1.2030288467723053e-21  3.3425394678796057e-23  -2.2281304342348295e-23  -1.5568328861197937e-24  -5.5151729370827950e-24  -3.4298714505783212e-26  7.3366763174063087e-25  1.3898174837235014e-26  -4.8302963542935015e-26  -1.3703374480219184e-27  8.8196828445156747e-28  5.7079252498899227e-29  2.1316378856384557e-28  -4.0377126540512611e-31  -3.0742803373727115e-29  -2.6731696492492051e-30  5.5806506853125284e-30  -2.7435490242537414e-30  4.0025327609572988e-31  3.8417510013100809e-30  -1.6178087306381659e-31  4.6001191584578666e-30  3.5070400267037338e-30  -1.9810200413492400e-30  -1.6980022613977494e-30  2.5185888442818833e-30  8.9947304719259628e-31  1.3741653578541029e-30  7.9480314413420881e-31  -2.5629093346039342e-30  -2.2778039800249793e-30  7.6421610821602372e-31  -4.4240913053878310e-31  2.0000000000000001e-17  -1.0953174741568323e-17  2.0000000000000001e-17  2.0000000000000001e-17  -1.3134355907747830e-18  -7.1346825980110313e-19  4.2788806479621569e-20  2.5319774082174384e-19  4.8036521073852240e-22  -2.3275313009283255e-20  -3.7050150095773336e-22  1.2030288348375322e-21  3.3425377303209078e-23  -2.2281316355472057e-23  -1.5568500323616947e-24  -5.5151923557978993e-24  -3.4328090227808238e-26  7.3365351822222228e-25  1.3879706520396351e-26  -4.8322418663274546e-26  -1.3891401390923214e-27  8.7153716229979869e-28  5.0567338690235987e-29  2.1474659007665411e-28  4.5073920215594884e-30  -2.7594715546192377e-29  -8.9176228569071920e-31  8.5429174334027531e-31  -9.3342242844779686e-30  -3.3270303528135312e-30  -1.8576144615498112e-30  -1.6491261501955185e-30  5.0511566864310011e-30  3.2078828854293887e-30  -4.7984460469243299e-30  -7.1096669767020512e-31  -2.0538538992453887e-30  -1.0815391855574938e-30  2.0841376749891920e-30  1.8956619639304000e-30  -3.0087913739006376e-30  -1.3950085313319392e-30  1.6650856049858880e-30  -5.7628877992652395e-31  -1.5612343028125263e-30  2.0000000000000001e-17  -1.0953174741571560e-17  2.0000000000000001e-17  2.0000000000000001e-17  -1.3134355907808766e-18  -7.1346825981515933e-19  4.2788806492776068e-20  2.5319774084131249e-19  4.8036526080311541e-22  -2.3275313000879670e-20  -3.7050145064590544e-22  1.2030288406658521e-21  3.3425378564172330e-23  -2.2281326077815040e-23  -1.5568888993974041e-24  -5.5152016553268783e-24  -3.4334087108870632e-26  7.3364061540538985e-25  1.3853713426447912e-26  -4.8328403315495845e-26  -1.3868218896597032e-27  8.7448281983800186e-28  6.9768935980580454e-29  2.1754881070798070e-28  2.1292177815727083e-29  -2.4214735297497618e-29  1.6135159969762294e-29  1.0245465013404057e-29  1.0391041390343689e-29  2.8011441882451505e-31  -2.6979105027116424e-30  -6.2469004984193556e-30  2.9237834154374420e-30  3.7687642766004849e-30  2.0883207000690062e-30  2.9391398962929142e-30  -3.9970395419066605e-30  -3.2734111957461347e-30  2.1369250870540393e-30  1.5355492500127888e-30  1.8696865228598852e-32  3.5117676564853138e-31  1.2137130640983312e-30  -1.4268228693961330e-30  2.4890606941281661e-31  2.0000000000000001e-17  -1.0953174741544056e-17  2.0000000000000001e-17  2.0000000000000001e-17  -1.3134355907740478e-18  -7.1346825980213687e-19  4.2788806511537761e-20  2.5319774084201584e-19  4.8036527828059149e-22  -2.3275312988620214e-20  -3.7050145640572300e-22  1.2030288800774346e-21  3.3425418257263718e-23  -2.2281291598677207e-23  -1.5568495970212947e-24  -5.5151766616620193e-24  -3.4321612113454012e-26  7.3365668913499627e-25  1.3882799429773635e-26  -4.8316493238249592e-26  -1.3502036497076565e-27  8.8503753403857113e-28  1.0054298837642177e-28  2.3345686883741679e-28  4.6589154697699386e-29  -1.5006041167800327e-29  2.5391697518538438e-29  9.4897673700851954e-30  5.7247282654398376e-30  2.2456770899829727e-30  -8.9501165399509203e-32  1.1214570201817221e-30  1.3643184821137142e-30  -1.0114762733104650e-30  3.1659705606646725e-30  5.8621557584473776e-30  -2.2291863312798854e-30  -1.8855408088664486e-30  -1.8206537835701664e-30  -1.8329758645769977e-30  1.5300576458227607e-30  1.8052572264587196e-30  -1.2391343586617346e-30  -1.3723152714931449e-30  2.5677970930894301e-31  -1.3401590169420078e-30  2.0000000000000001e-17  -1.0953174741696060e-17  2.0000000000000001e-17  2.0000000000000001e-17  -1.3134355909044797e-18  -7.1346825988405726e-19  4.2788806633756349e-20  2.5319774091717877e-19  4.8036525557484878e-22  -2.3275312985243162e-20  -3.7050143072297803e-22  1.2030288599856824e-21  3.3425388490929801e-23  -2.2281300114513150e-23  -1.5568646092953559e-24  -5.5151870120021688e-24  -3.4333696299334918e-26  7.3365530021243590e-25  1.3887701305616470e-26  -4.8305155684007775e-26  -1.3501626960219511e-27  9.0060837449613357e-28  1.2241632146787721e-28  2.4328029090538833e-28  5.3264302573807504e-29  -4.0197263990156927e-30  2.1928927913369185e-29  1.1059729468689275e-29  -6.2666840176153450e-30  -2.7106448482447555e-30  -1.2032398721300494e-29  -4.1074642677072250e-30  -9.1171809175856856e-30  6.2594600639765843e-31  4.3868310706984764e-30  2.4897201094726797e-30  1.0363206205705962e-30  2.3291354268552594e-30  -2.6620571620689862e-30  -3.2834546327609103e-30  1.7562931850885077e-30  1.0702332754291357e-30  1.0240369420636590e-30  5.7878168910706170e-31  -1.1764432293683963e-30  -7.8114729040912497e-31  -1.7956147233039407e-31  3.1930317535417165e-31  2.0000000000000001e-17  -1.0953174744127723e-17  2.0000000000000001e-17  2.0000000000000001e-17  -1.3134355871534170e-18  -7.1346825748738439e-19  4.2788805388445924e-20  2.5319774008202294e-19  4.8036513073470771e-22  -2.3275312989934466e-20  -3.7050129877894699e-22  1.2030289625918911e-21  3.3425331954710677e-23  -2.2281336165784381e-23  -1.5568560441423383e-24  -5.5151739051280201e-24  -3.4355336863243466e-26  7.3365351897677670e-25  1.3876155117087289e-26  -4.8311862782196688e-26  -1.3630902097634591e-27  8.8929626744114324e-28  1.0374326770998083e-28  2.4397162128612448e-28  5.9629479018566347e-29  -5.4870237822263673e-30  1.1735546444452804e-29  7.1804227588774364e-30  -1.1483917272205334e-29  -2.0238201443003687e-30  -1.6837264577310550e-29  -7.0744794950595228e-30  -1.1979330081484190e-29  -5.6462083556795406e-30  -4.3520654132104439e-30  -1.5046835784082654e-30  3.5945901637949663e-30  1.0787755274885670e-30  -8.0260183407984611e-31  -1.3257479874022113e-30  1.2036829080498020e-31  -8.6249944570737200e-31  1.9180417970119145e-30  1.5065176936030210e-30  -4.2244767196930867e-33  -1.6313779587839562e-31  -3.3486967120666218e-31  -4.5604904240233003e-31  4.8167554282671518e-32  -2.3504508614448094e-31  2.0000000000000001e-17  -1.0953174664307082e-17  2.0000000000000001e-17  2.0000000000000001e-17  -1.3134356301441543e-18  -7.1346828791108527e-19  4.2788805061883022e-20  2.5319774217649833e-19  4.8037193036334039e-22  -2.3275309324111381e-20  -3.7050397722280846e-22  1.2030270731359901e-21  3.3425920598602579e-23  -2.2280852127476915e-23  -1.5569719076059322e-24  -5.5152898398331489e-24  -3.4358393193233940e-26  7.3364375107683659e-25  1.3852687377188838e-26  -4.8321865334075611e-26  -1.3831868537381780e-27  8.6514232507326348e-28  6.9193067407873648e-29  2.2155327478630558e-28  3.4070405166998557e-29  -8.4521078128149427e-30  -2.2556490157278869e-30  2.7550381322905832e-30  -2.4520133142485181e-29  -8.4383043693839903e-30  -1.9565935542739519e-29  -6.4991971946227954e-30  -1.1616010843670475e-29  -4.7155962146879732e-30  -4.8018961595676092e-30  -2.3310063605631047e-30  -1.3883729224122987e-30  -4.9000215794869482e-31  -6.7377501308346545e-31  5.3339981159395361e-31  -3.3105038679256502e-31  -1.0113915802107867e-30  5.7736226077253969e-31  8.2331129825871265e-31  -2.6611928573660532e-31  -5.2555865104822792e-32  -6.1133971379725635e-31  -3.5621916424617596e-31  4.3742227706510624e-32  -1.8630594288441104e-31  2.0000000000000001e-17  -1.0953175724803540e-17  2.0000000000000001e-17  2.0000000000000001e-17  -1.3134355085141550e-18  -7.1346816634172951e-19  4.2789045694192836e-20  2.5319788230408022e-19  4.8025488830529639e-22  -2.3275394004501870e-20  -3.7047539244334908e-22  1.2030514040585393e-21  3.3420999363210300e-23 