<?xml version="1.0"?>
<VTKFile type="UnstructuredGrid"  version="0.1"  >
<UnstructuredGrid>
<Piece  NumberOfPoints="14307" NumberOfCells="75051">
<Points>
<DataArray  type="Float64"  NumberOfComponents="3"  format="ascii">2.8 0 1.5  2.9 0 1.5  2.9 0.1 1.5  2.9 0.1 1.6  2.9 0 1.6  2.8 0 1.6  2.8 0.1 1.5  2.8 0.1 1.6  3 0 1.5  3 0.1 1.5  3 0.1 1.6  3 0 1.6  3.1 0 1.6  3.1 0.1 1.6  2.9 0.2 1.5  2.9 0.2 1.6  3 0.2 1.6  3.1 0.2 1.6  3 0.3 1.6  2.9 0.3 1.6  2.9 0.1 1.7  2.9 0 1.7  2.8 0 1.7  2.8 0.1 1.7  3 0.1 1.7  3 0 1.7  3.1 0.1 1.7  3.1 0 1.7  3.2 0 1.6  3.2 0.1 1.6  3.2 0.1 1.7  3.2 0 1.7  3.3 0 1.6  3.3 0.1 1.6  3.3 0.1 1.7  3.3 0 1.7  3.4 0 1.6  3.4 0.1 1.6  3.4 0.1 1.7  3.4 0 1.7  3.5 0 1.6  3.5 0.1 1.6  3.5 0.1 1.7  3.5 0 1.7  3.6 0 1.7  3.6 0.1 1.7  2.9 0.2 1.7  3 0.2 1.7  3.1 0.2 1.7  3.2 0.2 1.6  3.2 0.2 1.7  3.3 0.2 1.7  3.4 0.2 1.7  3.5 0.2 1.7  3.6 0.2 1.7  3 0.3 1.7  2.9 0.3 1.7  3.1 0.3 1.6  3.1 0.3 1.7  3.2 0.3 1.7  3.3 0.3 1.7  3 0.4 1.6  3 0.4 1.7  3.1 0.4 1.7  3.2 0.4 1.7  3.1 0.5 1.7  2.7 0 1.7  2.8 0.1 1.8  2.8 0 1.8  2.7 0 1.8  2.9 0.1 1.8  2.9 0 1.8  3 0.1 1.8  3 0 1.8  3.1 0.1 1.8  3.1 0 1.8  3.2 0.1 1.8  3.2 0 1.8  3.3 0.1 1.8  3.3 0 1.8  3.4 0.1 1.8  3.4 0 1.8  3.5 0.1 1.8  3.5 0 1.8  3.6 0.1 1.8  3.6 0 1.8  3.7 0 1.7  3.7 0.1 1.7  3.7 0.1 1.8  3.7 0 1.8  3.8 0 1.8  3.8 0.1 1.8  2.9 0.2 1.8  3 0.2 1.8  3.1 0.2 1.8  3.2 0.2 1.8  3.3 0.2 1.8  3.4 0.2 1.8  3.5 0.2 1.8  3.6 0.2 1.8  3.7 0.2 1.7  3.7 0.2 1.8  3.8 0.2 1.8  3 0.3 1.8  2.9 0.3 1.8  3.1 0.3 1.8  3.2 0.3 1.8  3.3 0.3 1.8  3.4 0.3 1.7  3.4 0.3 1.8  3.5 0.3 1.8  3.6 0.3 1.8  3.7 0.3 1.8  3.8 0.3 1.8  3 0.4 1.8  3.1 0.4 1.8  3.2 0.4 1.8  3.3 0.4 1.7  3.3 0.4 1.8  3.4 0.4 1.8  3.5 0.4 1.8  3.1 0.5 1.8  3.2 0.5 1.7  3.2 0.5 1.8  3.3 0.5 1.7  3.3 0.5 1.8  3.4 0.5 1.8  3.2 0.6 1.7  3.2 0.6 1.8  3.3 0.6 1.8  3.4 0.6 1.8  2.8 0.1 1.9  2.8 0 1.9  2.7 0 1.9  2.9 0.1 1.9  2.9 0 1.9  3 0.1 1.9  3 0 1.9  3.1 0.1 1.9  3.1 0 1.9  3.2 0.1 1.9  3.2 0 1.9  3.3 0.1 1.9  3.3 0 1.9  3.4 0.1 1.9  3.4 0 1.9  3.5 0.1 1.9  3.5 0 1.9  3.6 0.1 1.9  3.6 0 1.9  3.7 0.1 1.9  3.7 0 1.9  3.8 0.1 1.9  3.8 0 1.9  3.9 0 1.8  3.9 0.1 1.8  3.9 0.1 1.9  3.9 0 1.9  4 0 1.8  4 0.1 1.8  4 0.1 1.9  4 0 1.9  4.1 0 1.9  4.1 0.1 1.9  2.9 0.2 1.9  3 0.2 1.9  3.1 0.2 1.9  3.2 0.2 1.9  3.3 0.2 1.9  3.4 0.2 1.9  3.5 0.2 1.9  3.6 0.2 1.9  3.7 0.2 1.9  3.8 0.2 1.9  3.9 0.2 1.8  3.9 0.2 1.9  4 0.2 1.9  4.1 0.2 1.9  3 0.3 1.9  2.9 0.3 1.9  3.1 0.3 1.9  3.2 0.3 1.9  3.3 0.3 1.9  3.4 0.3 1.9  3.5 0.3 1.9  3.6 0.3 1.9  3.7 0.3 1.9  3.8 0.3 1.9  3.9 0.3 1.9  4 0.3 1.9  3 0.4 1.9  3.1 0.4 1.9  3.2 0.4 1.9  3.3 0.4 1.9  3.4 0.4 1.9  3.5 0.4 1.9  3.6 0.4 1.8  3.6 0.4 1.9  3.7 0.4 1.9  3.8 0.4 1.9  3.9 0.4 1.9  3.1 0.5 1.9  3.2 0.5 1.9  3.3 0.5 1.9  3.4 0.5 1.9  3.5 0.5 1.8  3.5 0.5 1.9  3.6 0.5 1.9  3.7 0.5 1.9  3.2 0.6 1.9  3.3 0.6 1.9  3.4 0.6 1.9  3.5 0.6 1.8  3.5 0.6 1.9  3.6 0.6 1.9  3.4 0.7 1.8  3.4 0.7 1.9  3.5 0.7 1.8  3.5 0.7 1.9  3.6 0.7 1.9  3.5 0.8 1.8  3.5 0.8 1.9  3.6 0.8 1.9  2.8 0.1 2  2.8 0 2  2.7 0 2  2.7 0.1 2  2.9 0.1 2  2.9 0 2  3 0.1 2  3 0 2  3.1 0.1 2  3.1 0 2  3.2 0.1 2  3.2 0 2  3.3 0.1 2  3.3 0 2  3.4 0.1 2  3.4 0 2  3.5 0.1 2  3.5 0 2  3.6 0.1 2  3.6 0 2  3.7 0.1 2  3.7 0 2  3.8 0.1 2  3.8 0 2  3.9 0.1 2  3.9 0 2  4 0.1 2  4 0 2  4.1 0.1 2  4.1 0 2  4.2 0 1.9  4.2 0.1 1.9  4.2 0.1 2  4.2 0 2  4.3 0 2  4.3 0.1 2  2.9 0.2 2  2.8 0.2 2  3 0.2 2  3.1 0.2 2  3.2 0.2 2  3.3 0.2 2  3.4 0.2 2  3.5 0.2 2  3.6 0.2 2  3.7 0.2 2  3.8 0.2 2  3.9 0.2 2  4 0.2 2  4.1 0.2 2  4.2 0.2 1.9  4.2 0.2 2  4.3 0.2 2  3 0.3 2  2.9 0.3 2  3.1 0.3 2  3.2 0.3 2  3.3 0.3 2  3.4 0.3 2  3.5 0.3 2  3.6 0.3 2  3.7 0.3 2  3.8 0.3 2  3.9 0.3 2  4 0.3 2  4.1 0.3 1.9  4.1 0.3 2  4.2 0.3 2  4.3 0.3 2  3 0.4 2  3.1 0.4 2  3.2 0.4 2  3.3 0.4 2  3.4 0.4 2  3.5 0.4 2  3.6 0.4 2  3.7 0.4 2  3.8 0.4 2  3.9 0.4 2  4 0.4 2  4.1 0.4 2  4.2 0.4 2  3.1 0.5 2  3.2 0.5 2  3.3 0.5 2  3.4 0.5 2  3.5 0.5 2  3.6 0.5 2  3.7 0.5 2  3.8 0.5 1.9  3.8 0.5 2  3.9 0.5 2  4 0.5 2  3.2 0.6 2  3.3 0.6 2  3.4 0.6 2  3.5 0.6 2  3.6 0.6 2  3.7 0.6 1.9  3.7 0.6 2  3.8 0.6 2  3.9 0.6 2  3.3 0.7 2  3.4 0.7 2  3.5 0.7 2  3.6 0.7 2  3.7 0.7 1.9  3.7 0.7 2  3.8 0.7 2  3.5 0.8 2  3.6 0.8 2  3.7 0.8 1.9  3.7 0.8 2  3.8 0.7 1.9  3.8 0.8 1.9  3.8 0.8 2  3.9 0.8 2  3.6 0.9 2  3.7 0.9 1.9  3.7 0.9 2  3.8 0.9 1.9  3.8 0.9 2  3.9 0.9 2  3.8 1 1.9  3.8 1 2  3.9 1 2  3.9 1.1 2  2.6 0 2  2.7 0.1 2.1  2.7 0 2.1  2.6 0 2.1  2.8 0.1 2.1  2.8 0 2.1  2.9 0.1 2.1  2.9 0 2.1  3 0.1 2.1  3 0 2.1  3.1 0.1 2.1  3.1 0 2.1  3.2 0.1 2.1  3.2 0 2.1  3.3 0.1 2.1  3.3 0 2.1  3.4 0.1 2.1  3.4 0 2.1  3.5 0.1 2.1  3.5 0 2.1  3.6 0.1 2.1  3.6 0 2.1  3.7 0.1 2.1  3.7 0 2.1  3.8 0.1 2.1  3.8 0 2.1  3.9 0.1 2.1  3.9 0 2.1  4 0.1 2.1  4 0 2.1  4.1 0.1 2.1  4.1 0 2.1  4.2 0.1 2.1  4.2 0 2.1  4.3 0.1 2.1  4.3 0 2.1  4.4 0 2  4.4 0.1 2  4.4 0.1 2.1  4.4 0 2.1  4.5 0 2.1  4.5 0.1 2.1  2.8 0.2 2.1  2.9 0.2 2.1  3 0.2 2.1  3.1 0.2 2.1  3.2 0.2 2.1  3.3 0.2 2.1  3.4 0.2 2.1  3.5 0.2 2.1  3.6 0.2 2.1  3.7 0.2 2.1  3.8 0.2 2.1  3.9 0.2 2.1  4 0.2 2.1  4.1 0.2 2.1  4.2 0.2 2.1  4.3 0.2 2.1  4.4 0.2 2.1  4.5 0.2 2.1  2.9 0.3 2.1  3 0.3 2.1  3.1 0.3 2.1  3.2 0.3 2.1  3.3 0.3 2.1  3.4 0.3 2.1  3.5 0.3 2.1  3.6 0.3 2.1  3.7 0.3 2.1  3.8 0.3 2.1  3.9 0.3 2.1  4 0.3 2.1  4.1 0.3 2.1  4.2 0.3 2.1  4.3 0.3 2.1  4.4 0.3 2.1  3 0.4 2.1  3.1 0.4 2.1  3.2 0.4 2.1  3.3 0.4 2.1  3.4 0.4 2.1  3.5 0.4 2.1  3.6 0.4 2.1  3.7 0.4 2.1  3.8 0.4 2.1  3.9 0.4 2.1  4 0.4 2.1  4.1 0.4 2.1  4.2 0.4 2.1  4.3 0.4 2  4.3 0.4 2.1  4.4 0.4 2.1  3.1 0.5 2.1  3.2 0.5 2.1  3.3 0.5 2.1  3.4 0.5 2.1  3.5 0.5 2.1  3.6 0.5 2.1  3.7 0.5 2.1  3.8 0.5 2.1  3.9 0.5 2.1  4 0.5 2.1  4.1 0.5 2  4.1 0.5 2.1  4.2 0.5 2  4.2 0.5 2.1  4.3 0.5 2.1  4.4 0.5 2.1  3.2 0.6 2.1  3.3 0.6 2.1  3.4 0.6 2.1  3.5 0.6 2.1  3.6 0.6 2.1  3.7 0.6 2.1  3.8 0.6 2.1  3.9 0.6 2.1  4 0.6 2  4 0.6 2.1  4.1 0.6 2  4.1 0.6 2.1  4.2 0.6 2.1  4.3 0.6 2.1  3.3 0.7 2.1  3.4 0.7 2.1  3.5 0.7 2.1  3.6 0.7 2.1  3.7 0.7 2.1  3.8 0.7 2.1  3.9 0.7 2  3.9 0.7 2.1  4 0.7 2  4 0.7 2.1  4.1 0.7 2.1  4.2 0.7 2.1  3.4 0.8 2.1  3.5 0.8 2.1  3.6 0.8 2.1  3.7 0.8 2.1  3.8 0.8 2.1  3.9 0.8 2.1  4 0.8 2.1  4.1 0.8 2.1  3.6 0.9 2.1  3.7 0.9 2.1  3.8 0.9 2.1  3.9 0.9 2.1  4 0.9 2.1  3.7 1 2.1  3.8 1 2.1  3.9 1 2.1  4 0.9 2  4 1 2  4 1 2.1  4.1 1 2.1  3.9 1.1 2.1  3.8 1.1 2.1  4 1.1 2  4 1.1 2.1  4.1 1.1 2.1  4 1.2 2.1  3.9 1.2 2.1  3.9 1.2 2  4.1 1.2 2.1  4 1.3 2.1  2.5 0 2.1  2.6 0 2.2  2.6 0.1 2.2  2.5 0 2.2  2.7 0.1 2.2  2.7 0 2.2  2.8 0.1 2.2  2.8 0 2.2  2.9 0.1 2.2  2.9 0 2.2  3 0.1 2.2  3 0 2.2  3.1 0.1 2.2  3.1 0 2.2  3.2 0.1 2.2  3.2 0 2.2  3.3 0.1 2.2  3.3 0 2.2  3.4 0.1 2.2  3.4 0 2.2  3.5 0.1 2.2  3.5 0 2.2  3.6 0.1 2.2  3.6 0 2.2  3.7 0.1 2.2  3.7 0 2.2  3.8 0.1 2.2  3.8 0 2.2  3.9 0.1 2.2  3.9 0 2.2  4 0.1 2.2  4 0 2.2  4.1 0.1 2.2  4.1 0 2.2  4.2 0.1 2.2  4.2 0 2.2  4.3 0.1 2.2  4.3 0 2.2  4.4 0.1 2.2  4.4 0 2.2  4.5 0.1 2.2  4.5 0 2.2  4.6 0 2.1  4.6 0.1 2.1  4.6 0.1 2.2  4.6 0 2.2  4.7 0 2.2  4.7 0.1 2.2  2.8 0.2 2.2  2.9 0.2 2.2  3 0.2 2.2  3.1 0.2 2.2  3.2 0.2 2.2  3.3 0.2 2.2  3.4 0.2 2.2  3.5 0.2 2.2  3.6 0.2 2.2  3.7 0.2 2.2  3.8 0.2 2.2  3.9 0.2 2.2  4 0.2 2.2  4.1 0.2 2.2  4.2 0.2 2.2  4.3 0.2 2.2  4.4 0.2 2.2  4.5 0.2 2.2  4.6 0.2 2.2  4.7 0.2 2.2  2.9 0.3 2.2  3 0.3 2.2  3.1 0.3 2.2  3.2 0.3 2.2  3.3 0.3 2.2  3.4 0.3 2.2  3.5 0.3 2.2  3.6 0.3 2.2  3.7 0.3 2.2  3.8 0.3 2.2  3.9 0.3 2.2  4 0.3 2.2  4.1 0.3 2.2  4.2 0.3 2.2  4.3 0.3 2.2  4.4 0.3 2.2  4.5 0.3 2.2  4.6 0.3 2.2  3 0.4 2.2  2.9 0.4 2.2  3.1 0.4 2.2  3.2 0.4 2.2  3.3 0.4 2.2  3.4 0.4 2.2  3.5 0.4 2.2  3.6 0.4 2.2  3.7 0.4 2.2  3.8 0.4 2.2  3.9 0.4 2.2  4 0.4 2.2  4.1 0.4 2.2  4.2 0.4 2.2  4.3 0.4 2.2  4.4 0.4 2.2  4.5 0.4 2.2  3.1 0.5 2.2  3.2 0.5 2.2  3.3 0.5 2.2  3.4 0.5 2.2  3.5 0.5 2.2  3.6 0.5 2.2  3.7 0.5 2.2  3.8 0.5 2.2  3.9 0.5 2.2  4 0.5 2.2  4.1 0.5 2.2  4.2 0.5 2.2  4.3 0.5 2.2  4.4 0.5 2.2  4.5 0.5 2.2  3.2 0.6 2.2  3.3 0.6 2.2  3.4 0.6 2.2  3.5 0.6 2.2  3.6 0.6 2.2  3.7 0.6 2.2  3.8 0.6 2.2  3.9 0.6 2.2  4 0.6 2.2  4.1 0.6 2.2  4.2 0.6 2.2  4.3 0.6 2.2  4.4 0.6 2.1  4.4 0.6 2.2  4.5 0.6 2.2  3.3 0.7 2.2  3.4 0.7 2.2  3.5 0.7 2.2  3.6 0.7 2.2  3.7 0.7 2.2  3.8 0.7 2.2  3.9 0.7 2.2  4 0.7 2.2  4.1 0.7 2.2  4.2 0.7 2.2  4.3 0.7 2.1  4.3 0.7 2.2  4.4 0.7 2.1  4.4 0.7 2.2  4.5 0.7 2.2  3.4 0.8 2.2  3.5 0.8 2.2  3.6 0.8 2.2  3.7 0.8 2.2  3.8 0.8 2.2  3.9 0.8 2.2  4 0.8 2.2  4.1 0.8 2.2  4.2 0.8 2.1  4.2 0.8 2.2  4.3 0.8 2.2  4.4 0.8 2.2  4.5 0.8 2.2  3.5 0.9 2.1  3.5 0.9 2.2  3.6 0.9 2.2  3.7 0.9 2.2  3.8 0.9 2.2  3.9 0.9 2.2  4 0.9 2.2  4.1 0.9 2.1  4.1 0.9 2.2  4.2 0.9 2.1  4.2 0.9 2.2  4.3 0.9 2.2  3.6 1 2.2  3.7 1 2.2  3.8 1 2.2  3.9 1 2.2  4 1 2.2  4.1 1 2.2  4.2 1 2.1  4.2 1 2.2  4.3 0.9 2.1  4.3 1 2.1  4.3 1 2.2  4.4 1 2.2  3.8 1.1 2.2  3.9 1.1 2.2  4 1.1 2.2  4.1 1.1 2.2  4.2 1.1 2.1  4.2 1.1 2.2  4.3 1.1 2.1  4.3 1.1 2.2  4.4 1.1 2.2  3.9 1.2 2.2  4 1.2 2.2  4.1 1.2 2.2  4.2 1.2 2.1  4.2 1.2 2.2  4.3 1.2 2.1  4.3 1.2 2.2  4.4 1.2 2.2  4 1.3 2.2  4.1 1.3 2.1  4.1 1.3 2.2  4.2 1.3 2.1  4.2 1.3 2.2  4.3 1.3 2.1  4.3 1.3 2.2  4.4 1.2 2.1  4.4 1.3 2.1  4.4 1.3 2.2  4.5 1.3 2.2  4.1 1.4 2.1  4.1 1.4 2.2  4.2 1.4 2.1  4.2 1.4 2.2  4.3 1.4 2.1  4.3 1.4 2.2  4.4 1.4 2.2  4.5 1.4 2.2  4.3 1.5 2.2  4.4 1.5 2.2  2.6 0.1 2.3  2.6 0 2.3  2.5 0 2.3  2.5 0.1 2.3  2.7 0.1 2.3  2.7 0 2.3  2.8 0.1 2.3  2.8 0 2.3  2.9 0.1 2.3  2.9 0 2.3  3 0.1 2.3  3 0 2.3  3.1 0.1 2.3  3.1 0 2.3  3.2 0.1 2.3  3.2 0 2.3  3.3 0.1 2.3  3.3 0 2.3  3.4 0.1 2.3  3.4 0 2.3  3.5 0.1 2.3  3.5 0 2.3  3.6 0.1 2.3  3.6 0 2.3  3.7 0.1 2.3  3.7 0 2.3  3.8 0.1 2.3  3.8 0 2.3  3.9 0.1 2.3  3.9 0 2.3  4 0.1 2.3  4 0 2.3  4.1 0.1 2.3  4.1 0 2.3  4.2 0.1 2.3  4.2 0 2.3  4.3 0.1 2.3  4.3 0 2.3  4.4 0.1 2.3  4.4 0 2.3  4.5 0.1 2.3  4.5 0 2.3  4.6 0.1 2.3  4.6 0 2.3  4.7 0.1 2.3  4.7 0 2.3  4.8 0 2.2  4.8 0.1 2.2  4.8 0.1 2.3  4.8 0 2.3  4.9 0 2.2  4.9 0.1 2.2  4.9 0.1 2.3  4.9 0 2.3  5 0 2.3  5 0.1 2.3  2.7 0.2 2.2  2.7 0.2 2.3  2.6 0.2 2.3  2.8 0.2 2.3  2.9 0.2 2.3  3 0.2 2.3  3.1 0.2 2.3  3.2 0.2 2.3  3.3 0.2 2.3  3.4 0.2 2.3  3.5 0.2 2.3  3.6 0.2 2.3  3.7 0.2 2.3  3.8 0.2 2.3  3.9 0.2 2.3  4 0.2 2.3  4.1 0.2 2.3  4.2 0.2 2.3 
[...]
<PointData  Scalars="c_HbO2"> 
<DataArray  type="Float64"  Name="c_HbO2"  format="ascii">1.3927928310310304e-30  -5.4454509049054186e-31  -9.6887015149018545e-31  -7.3505108374656207e-31  -1.4347758590562442e-30  -8.4115240805559078e-31  -3.3097635894792813e-31  2.9949213359903375e-31  9.7542356024749914e-31  3.3229207736231051e-31  3.1958536557797201e-32  1.7567280630457453e-31  -2.8124079171706109e-31  -2.3592937182996971e-31  3.2833316628841794e-31  1.2240099159790908e-31  -2.0908053816286257e-31  1.3096939263618852e-31  1.9237964157621072e-30  -2.5159958637960704e-30  1.2831411161154877e-30  1.1274084649921682e-31  -1.2166551449822434e-30  -6.2337496167052405e-31  -6.2391890048440610e-31  -1.9597997764136304e-31  -5.2546179972182786e-32  -9.0107755987024948e-32  6.8432957245997479e-32  5.6720217131895826e-32  1.6825025027852476e-31  1.3741477280121488e-31  -1.7272224047399880e-31  4.5296207110753341e-32  1.1052566573429139e-31  6.8564588981882831e-32  7.3181706366804306e-32  4.4889791226765990e-32  4.2170008847840471e-32  -6.8878948894901664e-32  3.9224177985389101e-32  -5.1661709950266138e-33  1.1062441544555400e-32  3.4348999642791844e-33  -4.2822000237384691e-32  4.9212527502144946e-32  -1.1243933551700032e-30  -2.6009669234998116e-31  1.6554324633110485e-31  5.3493674667846730e-31  -6.2877514476002388e-32  -2.2932763060014267e-31  1.4986668624255858e-31  2.3923445046033315e-32  -1.7264269174752982e-33  8.3676478183630486e-31  3.9145220316638526e-31  -5.0355192807579579e-31  5.0340397946461453e-31  2.5808632398458271e-31  -2.8176682151957733e-31  -6.7388408440567555e-31  2.1195445099473922e-30  -8.6971115071132784e-31  4.1382024538493877e-31  1.9589038191501451e-31  3.1173635414373544e-30  -1.4741697484403696e-30  -4.3157505199083645e-31  -1.0355257724526343e-29  1.9482175968924927e-30  2.2890294042754809e-30  1.4055564400144313e-31  2.5207171935200963e-31  -9.7138311601900807e-32  -2.4848193917749682e-32  -1.2736312939148187e-32  1.6005410154365994e-31  1.8685487967852476e-31  1.5146750465597960e-31  4.5123135867300680e-32  -1.0949604817933292e-31  -1.0685164781868885e-31  -1.1466754985444261e-31  -9.2634194585086103e-33  2.6152386778311641e-32  -4.1265114652957147e-32  1.7275223425666364e-32  2.5882247092907286e-32  6.9080671705855856e-32  -4.2449837835856585e-32  -7.0964584326973868e-33  2.8227461417488020e-30  1.2194225183982740e-30  4.1714887180061850e-31  -3.5452894574562800e-31  -1.0243112941308389e-31  1.7792362313372250e-31  1.1897156186070917e-31  1.1464481959576984e-32  -1.8023248301885148e-33  -6.4059238103579333e-33  1.3155352033908576e-32  8.2545326558641694e-31  -3.4508917975920306e-30  -1.0717754604997249e-32  -4.2498310600382633e-31  -3.2789470674741144e-31  1.6948978788593489e-31  -1.1856333694453640e-31  -4.7705438433895099e-32  -2.8907483866184181e-32  1.7229035002583988e-32  -6.9826737555169532e-33  -8.7144410805527049e-31  3.6247343642387218e-31  4.5481035705147466e-31  -2.3870109514965403e-31  4.5877353467016014e-32  1.8959722201049783e-31  -3.5003076081438424e-31  -2.7092673848424513e-30  -4.7541787213470026e-31  4.3602998664915923e-31  4.0378655027175437e-31  -4.6097531480919881e-31  9.4103882321781281e-32  8.9622422552230594e-31  6.1528885981245836e-31  -6.4235363514037730e-31  -1.0843939614172740e-31  -1.8140193697273221e-31  1.0593943273043808e-31  2.6426885828399966e-30  -4.3860974828394336e-31  1.6672375164974652e-30  1.7709913121614238e-31  1.9597547651204823e-32  -8.4243727766944119e-32  -2.4115848212363008e-31  -1.4927938209581836e-31  -1.9948826152659337e-31  1.1252734285632030e-34  -3.5859747688632508e-32  9.1809311000566368e-32  -8.7053380530647503e-32  -5.4082475773920595e-32  -1.2704908439755678e-31  -7.9897741043870650e-32  -2.2320253732227221e-32  7.2162180710699164e-32  1.0892311076260535e-31  8.1770422375230711e-32  4.9928088396759456e-34  6.0131346259825457e-33  5.2337076965166799e-33  -5.4779277557032583e-32  -5.1540395124678958e-32  1.6962816628558359e-32  -5.1057871626144604e-33  -1.5319960149358303e-32  -4.4021698766003976e-33  4.6958531653460231e-33  9.1323861671657332e-33  1.1801837502234403e-30  8.9296721589185584e-31  -4.7141892413007010e-31  -2.1419635664013761e-31  -1.4518718050679640e-31  -5.9363844863534878e-32  2.1246255878296357e-31  6.5686252735523878e-32  -1.0373403094299979e-31  -1.1538683766274306e-32  -2.3737588311285677e-32  9.7354192192219853e-33  -5.7575842154249155e-33  1.2329270269089906e-33  7.1013793217550294e-31  -2.7291379855662769e-30  4.0392955784866243e-31  2.7236401407317317e-32  -1.6822719690611372e-31  -2.1463826071232981e-31  6.4877862292991070e-32  1.7518719636126378e-31  -7.8338669212321700e-33  -7.9764967223691267e-32  6.2120383261531753e-32  6.5192323492798467e-32  3.3916138226102479e-30  6.3049938923964265e-31  3.8557831822585182e-31  -2.0949604974932923e-32  -2.6364853697987252e-33  -2.8680615651830661e-31  3.2621586226738732e-32  1.6653545429388941e-32  -4.7387960574654520e-32  -4.7794560376400241e-32  3.7459695067321073e-32  -2.5098693616292276e-30  -1.0052662338454129e-30  -8.5079992992884754e-32  2.2258359933999523e-31  -1.9781319794383687e-31  1.3428201326303231e-31  3.0997064218511036e-32  5.5367893193661463e-32  4.2728694759573180e-30  -5.1682723131132603e-31  -5.4200259183720450e-31  2.2103162360392744e-31  -1.9287170976956544e-31  1.9345889774140531e-31  -6.6154839695190912e-31  -1.5924987547418054e-30  2.7948986306656355e-32  -6.9733553999115362e-31  -3.7706214114929101e-31  -6.0260304840105711e-31  1.9024417310752747e-30  5.8123268451841481e-31  8.6829593435929123e-31  2.3946560930244509e-30  3.3883660750632130e-31  1.4569737230394365e-30  -3.5636516912960262e-31  3.7817292296529921e-31  5.9555373499421497e-32  -3.6314592953679132e-31  9.2744949388346103e-32  -2.7289174309879923e-32  3.4003538548861976e-31  2.0878344985867886e-31  9.9897424270612685e-32  1.4742965726245650e-31  -8.2467394101108365e-32  -4.0064146996803245e-32  9.9144421049820844e-33  8.7000064158137104e-33  -2.0463210949203574e-32  3.7747857825438845e-32  -4.4664134634910964e-32  3.8544576587991924e-32  8.8940373581583071e-32  4.0362075497197681e-32  -9.6565443185419294e-33  -4.8054183375019994e-32  -3.7978397204808171e-32  -1.0427474253205162e-32  -5.1390854604735681e-33  7.1452109140957581e-33  -4.8516008578788175e-33  5.9332789455120129e-34  1.7717948826990533e-33  1.0281440094241298e-33  3.1234317211454778e-33  -2.4401998220887270e-33  6.9284434525496202e-31  4.3244303105025485e-31  -2.6589507541155532e-32  -1.7153615151793047e-30  -3.0819267573565664e-31  2.1404542939542814e-32  -3.1395610738848625e-31  1.1910911441147954e-31  1.9620018530039689e-31  -1.2711560405575376e-31  -7.1092138982162503e-32  7.8436633461955908e-32  2.2084077925336565e-32  -2.1160319519254828e-32  -1.6022664587541446e-34  -5.5064331483189301e-33  1.8696425635501374e-33  1.2122357713958217e-30  -8.1765088017745085e-31  5.6574280972794474e-31  9.9040393466420092e-32  2.0676610558834831e-31  -1.8383524438452600e-31  -1.4593893500424585e-31  2.2714637844173995e-31  9.4061785140067420e-32  -1.2256413336059089e-31  -4.4055773742727811e-32  2.8066239143182951e-32  -5.2598947587749356e-33  6.2626121527064833e-33  -2.9955347922056496e-33  1.2327841249181595e-32  4.8351835019221656e-30  1.4769023432832457e-30  1.9079436034781399e-31  1.9641156705017556e-31  3.8850717387382682e-32  -2.8046299400174473e-31  -6.4068213614647046e-32  1.5120861351271395e-31  5.7459838965566983e-32  -5.1252228820271133e-32  -9.3780909653460445e-33  -1.5613361584347268e-32  -1.5812609546023142e-32  -1.9891144438547843e-30  7.1342593837039844e-31  5.3432996928904158e-31  1.8429966080812317e-31  3.0600386111755982e-31  4.2169509781803797e-32  3.7908381557080061e-32  -6.2621617229872196e-32  4.9334382125923624e-32  -3.0387138457610778e-33  1.9968303268392205e-32  1.5856461094198368e-30  3.2193520850527072e-31  -6.9400364363040236e-31  -1.1267291990168607e-31  1.7818960872333721e-31  1.5048439641633774e-31  -5.9754899807702076e-33  -3.2046504992931222e-32  -3.5214405163915460e-32  -1.7913714206072212e-30  -5.4051790913063221e-31  -4.9258382905671233e-31  1.1481225329173419e-31  1.5967715094074025e-33  -9.8812371615251440e-32  -3.7538081200550387e-32  1.8881720906424824e-30  -1.2207520871415161e-31  3.0111220354072027e-31  -7.7537954474682233e-31  1.7311723691311541e-31  -6.0920782154534698e-32  -1.8288713431520708e-31  -9.9135337887952504e-32  -1.5063629580306571e-30  6.8370423392183369e-31  -1.3864076273353696e-30  1.5520698488843427e-31  2.7500524267946777e-31  -2.2585390700933654e-31  -1.2620417873037028e-31  6.4748882061038875e-31  3.2873104044423107e-31  -8.8623890393491902e-31  -8.7252458935824564e-30  -3.2821751085693653e-31  2.8714445414630913e-31  -6.0638499685798877e-30  1.0572567536513033e-30  2.1064430782182745e-30  3.8978832846604602e-31  -3.9597820490356994e-31  1.8164939366154910e-31  -3.3211934457409168e-31  -1.4429403660016504e-31  3.5212034622314906e-31  -1.2211395623998507e-31  1.3895250134272286e-31  -2.4299271886819376e-32  8.7124821447477901e-32  -6.1329521208743926e-32  -1.3449306789814784e-31  -2.1230055322142983e-31  -2.1237933181825157e-31  9.2652792235928598e-32  8.4657160937052160e-32  8.9951106589172145e-33  2.0013007237246236e-32  -1.8570310296623799e-32  -4.9653537466732017e-32  2.5763987265968667e-33  -3.1893226221314465e-32  3.7282691433266201e-33  1.8374572034309203e-32  1.6158701843680623e-33  1.3928430219353076e-32  2.6995905813680506e-33  -7.2222776816615877e-33  -2.0002033873506649e-33  -3.2645551711978330e-33  3.8315935564765820e-33  3.4413085350460535e-34  3.1379717116449477e-33  5.1641340786052010e-33  -4.4804982059749825e-33  1.4555439932317879e-34  -2.7568704872928588e-30  1.0284752849304042e-30  -8.7457659371743374e-31  -1.8176080983596329e-30  -2.8067884981855518e-31  5.8865664220533753e-31  -1.3277842567250496e-32  6.9490503468043854e-32  2.7839344259448886e-31  -2.8749054011757699e-32  -1.6056469296956640e-31  5.6651426350894920e-32  6.8009892551757983e-32  -1.8893868130443289e-32  -1.5482864789541500e-32  9.3997081661563210e-33  -3.4604871917760621e-33  -1.4830015443148867e-33  -5.6149472671725662e-31  6.2503167785931877e-31  1.1693929384322154e-30  1.4467571581107889e-31  5.2135260914549895e-31  5.9893776248793009e-32  -3.2151259139697873e-31  1.1920115570974761e-31  2.0440448602113899e-31  -1.3756467891151693e-31  -1.1725398301711684e-31  7.3202813137984600e-32  4.1981500991749876e-32  -2.1720113373265866e-32  -9.9203791683919869e-33  3.9945875421408730e-33  4.7820849335346061e-31  9.0649728312281239e-31  8.4288427856379572e-32  1.5104701440552294e-31  5.8454196091758811e-32  -2.2865688367156971e-31  -2.0220100223794548e-31  1.5690283901804828e-31  1.1351979022247656e-31  -9.1479593820027317e-32  -5.7739407521862582e-32  2.7812517777441480e-32  1.0263190971677677e-32  1.9696897603086234e-32  -1.1456779979601584e-32  8.6528973921431646e-34  1.4933558012469546e-30  3.1855509499768542e-31  7.0262833679328466e-31  2.3251900830396152e-31  2.8429254203589224e-31  -2.5701913425457968e-31  -1.5490760397388092e-31  1.3943297151172842e-31  6.7049428965726672e-32  -6.3808083825143691e-32  2.9419021578669791e-32  -1.3510196332163143e-32  -7.1017255098900969e-33  1.5165926068594557e-32  -2.0870999861271319e-33  -4.7318325540728955e-33  8.9104901741745689e-31  4.3924949116089934e-31  -9.6957068509892325e-32  2.4368545810326670e-31  4.3550146806177735e-32  -1.7750909623960723e-31  9.1436579126257940e-32  9.8755502627901002e-32  -5.7786633982392712e-32  9.2355192967688012e-33  2.3950421917249637e-32  -1.7866224925699661e-32  7.4760907527514728e-33  2.3619101913916829e-32  1.2484844589225705e-30  -2.5088065854507304e-31  2.0600929122425427e-31  1.0171374291709206e-31  -3.7972680971645305e-31  8.8524659235292423e-32  -5.1195555301502279e-32  9.4837284972633709e-34  -3.2920661521453462e-32  1.8954127084670305e-32  5.3942136357748185e-33  -1.6837976840879729e-32  -8.1594689852283869e-31  1.4319293066734706e-30  -5.1181022035162522e-31  -9.8810974477179075e-31  -4.0787300085680270e-32  -1.0657334070745724e-31  8.3924292759489527e-32  1.3048486371798188e-32  5.9562632384366589e-31  7.7232652347117420e-32  2.0551329393385738e-31  2.5467198726153023e-31  -2.2896059282585934e-31  -4.8737944864458878e-30  6.4723525422998337e-31  3.3466531276013032e-31  3.5481233105188784e-31  -5.7796209393863295e-31  2.7727011047127156e-31  6.5474018264089014e-32  3.9676904773296769e-31  1.4485449716787914e-30  1.0801671293291249e-31  -1.3580647464279650e-31  4.8120768335129489e-32  6.2312129675320092e-31  1.2156013227582948e-31  -2.9764130055065097e-31  5.4102067975127746e-32  9.4218006583754940e-31  -2.9918898744117400e-31  8.7743214473780358e-31  4.4937637723571691e-32  1.2752123664048127e-30  3.4477802409843277e-30  1.4453067359020900e-31  -1.9378818868054650e-30  -9.7945037275418858e-31  -3.9534471280994896e-32  -6.0235431654317926e-31  -3.1751864537187185e-31  2.2235772059871099e-31  -1.1151703931496361e-31  4.5700619930301135e-31  -2.8655133913444367e-31  -3.0552800822676404e-31  8.0207214108786714e-33  -1.3177578009549189e-31  2.1198679722973180e-31  5.8709783746656022e-32  -1.0707000260153613e-31  -2.3379001011373930e-31  1.2963364025459040e-32  4.2182628801521292e-32  1.6078333644325269e-31  1.6374509036443791e-31  -1.4792143574312299e-32  -4.8754189030693335e-32  -7.4618515587335643e-32  -9.6990963095406716e-32  1.3224579651093667e-33  2.0062835403796727e-32  3.4775791515730987e-32  3.8750400999882487e-32  1.1177382708394378e-32  -3.7659406359841151e-33  -8.6354067455257532e-33  -1.6142373589857203e-32  -7.3290493175189426e-34  1.9014191794792737e-33  4.2534971545472592e-33  3.8761356094226328e-33  3.7014343216956393e-34  -1.3717216695492510e-35  5.2673340201919904e-34  -4.8059658470119032e-34  3.0449364206888558e-35  -1.0461742010338966e-34  1.5922277587321984e-30  6.8620381815767381e-31  -1.2218805368051696e-30  -8.7321478093074149e-31  4.9286031305446237e-31  5.4915279359222492e-31  6.6819003621428935e-33  -6.5243577630204202e-32  9.5437988861993669e-32  -9.9798767243394923e-33  -1.7888649173265168e-31  -5.9704727868006788e-33  7.7848088133471889e-32  -8.7672673811582584e-33  -2.9397433697246854e-32  3.8579635824388547e-33  1.0877748725408186e-32  -1.4561999729332071e-34  1.6633310689207866e-33  6.3740110179488110e-34  1.1642624286435360e-30  1.4277614302168437e-30  1.4889595238113724e-30  -4.0616162243474016e-31  1.3727859123425207e-31  -2.3973154799292129e-33  -3.0230924641011242e-31  7.3840551083607547e-32  2.7041466503647302e-31  -1.0236719562285916e-31  -1.6619506316020941e-31  5.4930151623348350e-32  7.2857026028270723e-32  -3.4872696690229425e-32  -2.9257576211766577e-32  8.2960827919500086e-33  5.3634229220687084e-33  -3.4685871644960760e-33  1.5434385775479217e-30  -2.0099995747117655e-30  1.7831857095785042e-31  -7.5026753068665251e-31  1.3675892120369247e-31  2.0494022557181716e-32  -2.4880628994497701e-31  -2.7300435826671865e-31  1.4490935028326043e-31  1.7514133860198937e-31  -1.2988028029701432e-31  -1.1942112965412079e-31  5.4323777436355980e-32  4.3629538593910818e-32  -1.9648546770168462e-32  -7.5524211679489838e-33  1.3135061174851541e-32  -1.9159107704219793e-30  1.4124405651152481e-31  2.5773673592044195e-31  2.6723073753216897e-31  6.4706045263457240e-32  -4.9009834610096262e-31  -2.2988846759725030e-31  2.2923296827704984e-31  1.1290823500661970e-31  -9.3549847693499172e-32  -2.9275670098494722e-32  4.2342217144503014e-32  1.7022260002032091e-32  -1.0445990122466120e-32  1.3313225146628546e-33  8.8841721648294604e-31  -5.0331445397721262e-31  2.0284517601220156e-31  2.8106071771545018e-31  -6.6733846885590300e-33  -1.7206784955935672e-31  1.0013728669998510e-31  1.1812285878082677e-31  1.3887619069895117e-32  -5.0585327247723505e-32  -1.0241866632957188e-32  1.9702086876407024e-32  -1.2130607802311974e-32  1.3862843917582348e-33  1.7661906467665382e-33  -4.1196453738784870e-30  2.8506735886885349e-31  1.4868095589905617e-31  -2.9573516554945990e-32  -1.3177538999581759e-31  2.1175297254626793e-32  -6.9192120781498202e-32  -3.0760978439179329e-32  -3.5691303024665651e-32  -2.4367554721611337e-32  1.0724539790044396e-32  2.1299201800690342e-33  -3.5697299378788263e-33  3.2635719848017964e-33  -3.2137161860366147e-33  -2.3193886828794806e-30  -3.7630271404090174e-31  -4.1684371331806579e-31  -8.1252521279473517e-32  1.1801340973781538e-31  1.2261029599686733e-31  -2.7090167742726623e-33  6.2276911001573654e-32  -3.7598858424281499e-32  4.0914451188171756e-32  1.5011446613507774e-33  4.7542666385220342e-33  -5.7730711681324760e-33  1.4273747857552252e-30  7.9131205403217246e-31  3.7253026287984835e-31  -3.2391631762092255e-31  1.0052987348130745e-31  4.4639986522277827e-31  7.0904836641267397e-33  6.0571000659948359e-32  -8.8494919668695542e-33  -2.3379832943781096e-32  9.4478046720415492e-32  -3.4598017226656645e-32  1.1358355460672300e-30  9.9681203077043158e-31  -6.8422358555828022e-31  -1.1149181334075565e-31  -8.1467719300425195e-32  -9.3827951495445613e-32  -5.5120298992086926e-33  -4.1499272662882193e-32  -8.5336040691435240e-33  1.6726312075811445e-32  4.5117387876880719e-32  -2.7416788391402983e-32  5.9048389385198328e-32  -7.9601874726988888e-31  -2.0062232155853085e-31  8.0867375057167878e-32  -1.1778934009201055e-32  -3.0961572871273075e-32  -1.6639658945694649e-32  -1.8297324390295789e-32  2.3290641805195829e-32  -1.1801346349202923e-30  -3.9416997625265782e-31  1.5143480820096597e-31  1.1631992765758144e-31  2.1356518001924819e-31  -7.4179033501431638e-32  -6.5620529350298453e-32  3.9982059313630130e-32  -4.9716682723530315e-31  3.5652468028732264e-32  1.1927660604264140e-31  -6.1470491289217994e-31  2.8515924437434781e-31  8.3552403325913490e-32  -3.2813624430446951e-32  -1.3912789874921002e-32  1.6333112592999523e-32  3.6208023374844187e-32  2.3734031663598442e-32  -7.1456229111468161e-32  1.5605792665045158e-31  7.7500471836186761e-32  2.8301998034045371e-31  -6.9588537504373019e-32  -1.4636724464657118e-31  1.4915830312094689e-31  -4.8294111751377763e-32  1.5698766787222954e-31  -7.0752190550966526e-32  2.0810716324760810e-30  2.0726924833526221e-30  -2.1969447201874958e-30  -2.6061734523656754e-30  -8.8147064714509911e-31  -1.8335892082676562e-31  5.2730632627572740e-31  -3.0024806251451757e-31  -3.7853587769971490e-31  -1.3955880091428243e-32  6.8840373584409242e-31  1.5712875655077605e-30  3.6761325176841921e-31  7.7950501694192947e-31  9.6969223853030581e-32  -3.0766127631886125e-31  -7.8975800430249183e-32  -1.7915340630842145e-31  5.4746233353173102e-32  1.0803722529288761e-31  5.8829036747055470e-32  2.7645433598067627e-32  -1.5663031276560759e-31  -5.5914491757077811e-32  3.8837270906236480e-32  1.2303961994949218e-31  9.1056120712194952e-32  7.9353623027766151e-32  -6.4199850996831683e-32  -9.1057133493952344e-32  -5.8086861773633820e-32  -2.7758462241166617e-32  3.1587168283092709e-32  4.7601943226993239e-32  1.9345773093341289e-32  1.0422000874747235e-32  -1.1973326455273185e-32  -1.9217167524491992e-32  -9.2991342479166059e-33  -6.1772014099862127e-33  2.1292769112063944e-33  4.5623117511962190e-33  2.0049147281856564e-33  6.2039553017378638e-34  -2.0788905722685052e-34  -8.8890195261547199e-34  4.9746656531900911e-34  1.1259749406981305e-34  -1.8290996527713706e-34  4.4319541329047989e-35  4.5181256411302582e-35  3.8384934193756684e-37  1.3150651572607062e-34  6.5174116824771285e-35  -1.0484146738802712e-35  1.0858353117210615e-35  1.9844842496087510e-30  -1.6109269507623336e-30  6.3068211190851639e-31  5.6938902798174866e-32  -1.8733800313740629e-32  -1.1715975116363304e-30  -3.6538947961888852e-31  5.3978260814454807e-31  1.7082129005048762e-31  -2.3861853323206908e-31  1.2057114080459005e-33  4.5815847137499023e-32  -7.9408688230543962e-33  -1.0174812024276823e-31  -2.7653017472250820e-33  4.7144277778361925e-32  -1.3884371565425139e-32  -4.8071583510806731e-32  4.3743169000615172e-33  1.8348724808558625e-32  -1.6684364707846478e-33