<?xml version="1.0"?>
<VTKFile type="UnstructuredGrid"  version="0.1"  >
<UnstructuredGrid>
<Piece  NumberOfPoints="14206" NumberOfCells="74130">
<Points>
<DataArray  type="Float64"  NumberOfComponents="3"  format="ascii">0 3.1 2.4  0 3.1 2.5  0.1 3.1 2.5  0.1 3.2 2.5  0 3.2 2.5  0 3.2 2.4  0.1 3.3 2.5  0 3.3 2.5  0 3.3 2.4  0.1 3.4 2.5  0 3.4 2.5  0 3.4 2.4  0.1 3.5 2.5  0 3.5 2.5  0 3.5 2.4  0.1 3.6 2.5  0 3.6 2.5  0 3.6 2.4  0.1 3.7 2.5  0 3.7 2.5  0 3.7 2.4  0.1 3.8 2.5  0 3.8 2.5  0 3.8 2.4  0.1 3.9 2.5  0 3.9 2.5  0 2.5 2.5  0 2.5 2.6  0 2.6 2.6  0.1 2.6 2.6  0 2.6 2.5  0.1 2.7 2.6  0 2.7 2.5  0.1 2.7 2.5  0 2.7 2.6  0.1 2.8 2.5  0.1 2.8 2.6  0 2.8 2.5  0 2.8 2.6  0.2 2.7 2.6  0.2 2.8 2.6  0.1 2.9 2.5  0.1 2.9 2.6  0 2.9 2.5  0 2.9 2.6  0.2 2.9 2.6  0.1 3 2.5  0.1 3 2.6  0 3 2.5  0 3 2.6  0.2 3 2.6  0.1 3.1 2.6  0 3.1 2.6  0.2 3.1 2.6  0.1 3.2 2.6  0 3.2 2.6  0.2 3.2 2.6  0.1 3.3 2.6  0 3.3 2.6  0.2 3.3 2.6  0.1 3.4 2.6  0 3.4 2.6  0.2 3.4 2.6  0.1 3.5 2.6  0 3.5 2.6  0.2 3.5 2.6  0.1 3.6 2.6  0 3.6 2.6  0.2 3.6 2.6  0.1 3.7 2.6  0 3.7 2.6  0.2 3.7 2.6  0.1 3.8 2.6  0 3.8 2.6  0.2 3.8 2.6  0.2 3.8 2.5  0.1 3.9 2.6  0 3.9 2.6  0.2 3.9 2.5  0.2 3.9 2.6  0.3 3.9 2.6  0.1 4 2.5  0.1 4 2.6  0 4 2.5  0 4 2.6  0.2 4 2.5  0.2 4 2.6  0.3 4 2.6  0.1 4.1 2.5  0.1 4.1 2.6  0 4.1 2.5  0 4.1 2.6  0.2 4.1 2.5  0.2 4.1 2.6  0.3 4.1 2.6  0.1 4.2 2.6  0 4.2 2.6  0 4.2 2.5  0.2 4.2 2.6  0.3 4.2 2.6  0.1 4.3 2.6  0 4.3 2.6  0 4.3 2.5  0.1 4.4 2.6  0 4.4 2.6  0 4.4 2.5  0.1 4.5 2.6  0 4.5 2.6  0.1 2.5 2.6  0.1 2.6 2.7  0.1 2.5 2.7  0 2.5 2.7  0 2.6 2.7  0.2 2.6 2.7  0.1 2.7 2.7  0 2.7 2.7  0.2 2.7 2.7  0.1 2.8 2.7  0 2.8 2.7  0.2 2.8 2.7  0.3 2.7 2.7  0.3 2.8 2.7  0.1 2.9 2.7  0 2.9 2.7  0.2 2.9 2.7  0.3 2.9 2.7  0.1 3 2.7  0 3 2.7  0.2 3 2.7  0.3 3 2.7  0.1 3.1 2.7  0 3.1 2.7  0.2 3.1 2.7  0.3 3.1 2.7  0.1 3.2 2.7  0 3.2 2.7  0.2 3.2 2.7  0.3 3.2 2.7  0.1 3.3 2.7  0 3.3 2.7  0.2 3.3 2.7  0.3 3.3 2.7  0.3 3.3 2.6  0.1 3.4 2.7  0 3.4 2.7  0.2 3.4 2.7  0.3 3.4 2.6  0.3 3.4 2.7  0.4 3.4 2.7  0.1 3.5 2.7  0 3.5 2.7  0.2 3.5 2.7  0.3 3.5 2.6  0.3 3.5 2.7  0.4 3.5 2.7  0.1 3.6 2.7  0 3.6 2.7  0.2 3.6 2.7  0.3 3.6 2.7  0.4 3.6 2.7  0.1 3.7 2.7  0 3.7 2.7  0.2 3.7 2.7  0.3 3.7 2.7  0.1 3.8 2.7  0 3.8 2.7  0.2 3.8 2.7  0.3 3.8 2.7  0.1 3.9 2.7  0 3.9 2.7  0.2 3.9 2.7  0.3 3.9 2.7  0.1 4 2.7  0 4 2.7  0.2 4 2.7  0.3 4 2.7  0.4 4 2.6  0.4 4 2.7  0.1 4.1 2.7  0 4.1 2.7  0.2 4.1 2.7  0.3 4.1 2.7  0.4 4.1 2.6  0.4 4.1 2.7  0.5 4 2.7  0.5 4.1 2.7  0.1 4.2 2.7  0 4.2 2.7  0.2 4.2 2.7  0.3 4.2 2.7  0.4 4.2 2.6  0.4 4.2 2.7  0.5 4.2 2.7  0.1 4.3 2.7  0 4.3 2.7  0.2 4.3 2.6  0.2 4.3 2.7  0.3 4.3 2.7  0.4 4.3 2.7  0.5 4.3 2.7  0.1 4.4 2.7  0 4.4 2.7  0.2 4.4 2.6  0.2 4.4 2.7  0.3 4.4 2.7  0.1 4.5 2.7  0 4.5 2.7  0.2 4.5 2.6  0.2 4.5 2.7  0.3 4.4 2.6  0.3 4.5 2.6  0.3 4.5 2.7  0.4 4.4 2.7  0.4 4.5 2.7  0.1 4.6 2.7  0 4.6 2.7  0.2 4.6 2.7  0.3 4.6 2.7  0.4 4.6 2.7  0 4.7 2.6  0 4.7 2.7  0.1 4.7 2.7  0.1 4.8 2.7  0 4.8 2.7  0 4.8 2.6  0.1 4.9 2.7  0 4.9 2.7  0 4.9 2.6  0.1 5 2.7  0 5 2.7  0 5 2.6  0 2.3 2.7  0.1 2.3 2.7  0.1 2.4 2.7  0.1 2.4 2.8  0 2.4 2.7  0 2.4 2.8  0.2 2.4 2.7  0.2 2.4 2.8  0.1 2.5 2.8  0 2.5 2.8  0.2 2.5 2.7  0.2 2.5 2.8  0.3 2.5 2.8  0.1 2.6 2.8  0 2.6 2.8  0.2 2.6 2.8  0.3 2.6 2.8  0.1 2.7 2.8  0 2.7 2.8  0.2 2.7 2.8  0.3 2.7 2.8  0.1 2.8 2.8  0 2.8 2.8  0.2 2.8 2.8  0.3 2.8 2.8  0.4 2.7 2.8  0.4 2.8 2.8  0.4 2.8 2.7  0.1 2.9 2.8  0 2.9 2.8  0.2 2.9 2.8  0.3 2.9 2.8  0.4 2.9 2.7  0.4 2.9 2.8  0.5 2.8 2.8  0.5 2.9 2.8  0.1 3 2.8  0 3 2.8  0.2 3 2.8  0.3 3 2.8  0.4 3 2.7  0.4 3 2.8  0.5 3 2.8  0.1 3.1 2.8  0 3.1 2.8  0.2 3.1 2.8  0.3 3.1 2.8  0.4 3.1 2.7  0.4 3.1 2.8  0.5 3.1 2.8  0.1 3.2 2.8  0 3.2 2.8  0.2 3.2 2.8  0.3 3.2 2.8  0.4 3.2 2.7  0.4 3.2 2.8  0.5 3.2 2.8  0.1 3.3 2.8  0 3.3 2.8  0.2 3.3 2.8  0.3 3.3 2.8  0.4 3.3 2.7  0.4 3.3 2.8  0.5 3.3 2.8  0.1 3.4 2.8  0 3.4 2.8  0.2 3.4 2.8  0.3 3.4 2.8  0.4 3.4 2.8  0.5 3.4 2.8  0.5 3.4 2.7  0.1 3.5 2.8  0 3.5 2.8  0.2 3.5 2.8  0.3 3.5 2.8  0.4 3.5 2.8  0.5 3.5 2.7  0.5 3.5 2.8  0.6 3.5 2.8  0.1 3.6 2.8  0 3.6 2.8  0.2 3.6 2.8  0.3 3.6 2.8  0.4 3.6 2.8  0.5 3.6 2.7  0.5 3.6 2.8  0.6 3.6 2.8  0.6 3.6 2.7  0.1 3.7 2.8  0 3.7 2.8  0.2 3.7 2.8  0.3 3.7 2.8  0.4 3.7 2.7  0.4 3.7 2.8  0.5 3.7 2.7  0.5 3.7 2.8  0.6 3.7 2.7  0.6 3.7 2.8  0.7 3.7 2.8  0.1 3.8 2.8  0 3.8 2.8  0.2 3.8 2.8  0.3 3.8 2.8  0.4 3.8 2.7  0.4 3.8 2.8  0.5 3.8 2.7  0.5 3.8 2.8  0.6 3.8 2.7  0.6 3.8 2.8  0.7 3.8 2.8  0.1 3.9 2.8  0 3.9 2.8  0.2 3.9 2.8  0.3 3.9 2.8  0.4 3.9 2.7  0.4 3.9 2.8  0.5 3.9 2.7  0.5 3.9 2.8  0.6 3.9 2.8  0.7 3.9 2.8  0.1 4 2.8  0 4 2.8  0.2 4 2.8  0.3 4 2.8  0.4 4 2.8  0.5 4 2.8  0.6 4 2.8  0.1 4.1 2.8  0 4.1 2.8  0.2 4.1 2.8  0.3 4.1 2.8  0.4 4.1 2.8  0.5 4.1 2.8  0.6 4.1 2.8  0.1 4.2 2.8  0 4.2 2.8  0.2 4.2 2.8  0.3 4.2 2.8  0.4 4.2 2.8  0.5 4.2 2.8  0.6 4.2 2.8  0.1 4.3 2.8  0 4.3 2.8  0.2 4.3 2.8  0.3 4.3 2.8  0.4 4.3 2.8  0.5 4.3 2.8  0.6 4.3 2.8  0.1 4.4 2.8  0 4.4 2.8  0.2 4.4 2.8  0.3 4.4 2.8  0.4 4.4 2.8  0.5 4.4 2.7  0.5 4.4 2.8  0.6 4.4 2.8  0.1 4.5 2.8  0 4.5 2.8  0.2 4.5 2.8  0.3 4.5 2.8  0.4 4.5 2.8  0.5 4.5 2.8  0.6 4.5 2.8  0.1 4.6 2.8  0 4.6 2.8  0.2 4.6 2.8  0.3 4.6 2.8  0.4 4.6 2.8  0.5 4.6 2.8  0.1 4.7 2.8  0 4.7 2.8  0.2 4.7 2.7  0.2 4.7 2.8  0.3 4.7 2.8  0.4 4.7 2.8  0.5 4.7 2.8  0.1 4.8 2.8  0 4.8 2.8  0.2 4.8 2.7  0.2 4.8 2.8  0.3 4.8 2.8  0.1 4.9 2.8  0 4.9 2.8  0.2 4.9 2.7  0.2 4.9 2.8  0.3 4.9 2.8  0.1 5 2.8  0 5 2.8  0.2 5 2.7  0.2 5 2.8  0.3 5 2.8  0.1 2.5 2.9  0.1 2.4 2.9  0 2.4 2.9  0 2.5 2.9  0.2 2.5 2.9  0.2 2.4 2.9  0.3 2.5 2.9  0.1 2.6 2.9  0 2.6 2.9  0.2 2.6 2.9  0.3 2.6 2.9  0.4 2.5 2.9  0.4 2.6 2.9  0.1 2.7 2.9  0 2.7 2.9  0.2 2.7 2.9  0.3 2.7 2.9  0.4 2.6 2.8  0.4 2.7 2.9  0.5 2.7 2.9  0.1 2.8 2.9  0 2.8 2.9  0.2 2.8 2.9  0.3 2.8 2.9  0.4 2.8 2.9  0.5 2.7 2.8  0.5 2.8 2.9  0.6 2.7 2.9  0.6 2.8 2.9  0.6 2.8 2.8  0.1 2.9 2.9  0 2.9 2.9  0.2 2.9 2.9  0.3 2.9 2.9  0.4 2.9 2.9  0.5 2.9 2.9  0.6 2.9 2.8  0.6 2.9 2.9  0.7 2.8 2.9  0.7 2.9 2.9  0.1 3 2.9  0 3 2.9  0.2 3 2.9  0.3 3 2.9  0.4 3 2.9  0.5 3 2.9  0.6 3 2.8  0.6 3 2.9  0.7 3 2.9  0.1 3.1 2.9  0 3.1 2.9  0.2 3.1 2.9  0.3 3.1 2.9  0.4 3.1 2.9  0.5 3.1 2.9  0.6 3.1 2.8  0.6 3.1 2.9  0.7 3 2.8  0.7 3.1 2.8  0.7 3.1 2.9  0.8 3 2.9  0.8 3.1 2.9  0.8 3.1 2.8  0.1 3.2 2.9  0 3.2 2.9  0.2 3.2 2.9  0.3 3.2 2.9  0.4 3.2 2.9  0.5 3.2 2.9  0.6 3.2 2.8  0.6 3.2 2.9  0.7 3.2 2.8  0.7 3.2 2.9  0.8 3.2 2.8  0.8 3.2 2.9  0.9 3.2 2.9  0.1 3.3 2.9  0 3.3 2.9  0.2 3.3 2.9  0.3 3.3 2.9  0.4 3.3 2.9  0.5 3.3 2.9  0.6 3.3 2.8  0.6 3.3 2.9  0.7 3.3 2.8  0.7 3.3 2.9  0.8 3.3 2.9  0.9 3.3 2.9  0.1 3.4 2.9  0 3.4 2.9  0.2 3.4 2.9  0.3 3.4 2.9  0.4 3.4 2.9  0.5 3.4 2.9  0.6 3.4 2.8  0.6 3.4 2.9  0.7 3.4 2.8  0.7 3.4 2.9  0.8 3.4 2.9  0.1 3.5 2.9  0 3.5 2.9  0.2 3.5 2.9  0.3 3.5 2.9  0.4 3.5 2.9  0.5 3.5 2.9  0.6 3.5 2.9  0.7 3.5 2.8  0.7 3.5 2.9  0.8 3.4 2.8  0.8 3.5 2.8  0.8 3.5 2.9  0.9 3.5 2.8  0.9 3.5 2.9  0.1 3.6 2.9  0 3.6 2.9  0.2 3.6 2.9  0.3 3.6 2.9  0.4 3.6 2.9  0.5 3.6 2.9  0.6 3.6 2.9  0.7 3.6 2.8  0.7 3.6 2.9  0.8 3.6 2.8  0.8 3.6 2.9  0.9 3.6 2.8  0.9 3.6 2.9  1 3.5 2.8  1 3.6 2.8  1 3.6 2.9  1 3.5 2.9  1.1 3.6 2.9  0.1 3.7 2.9  0 3.7 2.9  0.2 3.7 2.9  0.3 3.7 2.9  0.4 3.7 2.9  0.5 3.7 2.9  0.6 3.7 2.9  0.7 3.7 2.9  0.8 3.7 2.8  0.8 3.7 2.9  0.9 3.7 2.8  0.9 3.7 2.9  1 3.7 2.8  1 3.7 2.9  1.1 3.7 2.9  0.1 3.8 2.9  0 3.8 2.9  0.2 3.8 2.9  0.3 3.8 2.9  0.4 3.8 2.9  0.5 3.8 2.9  0.6 3.8 2.9  0.7 3.8 2.9  0.8 3.8 2.8  0.8 3.8 2.9  0.9 3.8 2.8  0.9 3.8 2.9  1 3.8 2.9  1.1 3.8 2.9  0.1 3.9 2.9  0 3.9 2.9  0.2 3.9 2.9  0.3 3.9 2.9  0.4 3.9 2.9  0.5 3.9 2.9  0.6 3.9 2.9  0.7 3.9 2.9  0.8 3.9 2.8  0.8 3.9 2.9  0.9 3.9 2.8  0.9 3.9 2.9  1 3.9 2.9  0.1 4 2.9  0 4 2.9  0.2 4 2.9  0.3 4 2.9  0.4 4 2.9  0.5 4 2.9  0.6 4 2.9  0.7 4 2.8  0.7 4 2.9  0.8 4 2.8  0.8 4 2.9  0.9 4 2.9  1 4 2.9  0.1 4.1 2.9  0 4.1 2.9  0.2 4.1 2.9  0.3 4.1 2.9  0.4 4.1 2.9  0.5 4.1 2.9  0.6 4.1 2.9  0.7 4.1 2.8  0.7 4.1 2.9  0.8 4.1 2.8  0.8 4.1 2.9  0.9 4.1 2.9  0.1 4.2 2.9  0 4.2 2.9  0.2 4.2 2.9  0.3 4.2 2.9  0.4 4.2 2.9  0.5 4.2 2.9  0.6 4.2 2.9  0.7 4.2 2.8  0.7 4.2 2.9  0.8 4.2 2.8  0.8 4.2 2.9  0.9 4.2 2.9  0.1 4.3 2.9  0 4.3 2.9  0.2 4.3 2.9  0.3 4.3 2.9  0.4 4.3 2.9  0.5 4.3 2.9  0.6 4.3 2.9  0.7 4.3 2.8  0.7 4.3 2.9  0.8 4.3 2.8  0.8 4.3 2.9  0.9 4.3 2.9  0.1 4.4 2.9  0 4.4 2.9  0.2 4.4 2.9  0.3 4.4 2.9  0.4 4.4 2.9  0.5 4.4 2.9  0.6 4.4 2.9  0.7 4.4 2.8  0.7 4.4 2.9  0.8 4.4 2.9  0.9 4.4 2.9  0.1 4.5 2.9  0 4.5 2.9  0.2 4.5 2.9  0.3 4.5 2.9  0.4 4.5 2.9  0.5 4.5 2.9  0.6 4.5 2.9  0.7 4.5 2.8  0.7 4.5 2.9  0.8 4.5 2.9  0.1 4.6 2.9  0 4.6 2.9  0.2 4.6 2.9  0.3 4.6 2.9  0.4 4.6 2.9  0.5 4.6 2.9  0.6 4.6 2.8  0.6 4.6 2.9  0.7 4.6 2.8  0.7 4.6 2.9  0.8 4.6 2.9  0.1 4.7 2.9  0 4.7 2.9  0.2 4.7 2.9  0.3 4.7 2.9  0.4 4.7 2.9  0.5 4.7 2.9  0.6 4.7 2.8  0.6 4.7 2.9  0.7 4.7 2.9  0.8 4.7 2.9  0.1 4.8 2.9  0 4.8 2.9  0.2 4.8 2.9  0.3 4.8 2.9  0.4 4.8 2.8  0.4 4.8 2.9  0.5 4.8 2.8  0.5 4.8 2.9  0.6 4.8 2.9  0.7 4.8 2.9  0.1 4.9 2.9  0 4.9 2.9  0.2 4.9 2.9  0.3 4.9 2.9  0.4 4.9 2.8  0.4 4.9 2.9  0.5 4.9 2.9  0.6 4.9 2.9  0.1 5 2.9  0 5 2.9  0.2 5 2.9  0.3 5 2.9  0.4 5 2.8  0.4 5 2.9  0.5 5 2.9  0.1 2.5 3  0 2.5 3  0.2 2.5 3  0.3 2.5 3  0.1 2.6 3  0 2.6 3  0.2 2.6 3  0.3 2.6 3  0.4 2.6 3  0.5 2.5 2.9  0.5 2.6 2.9  0.5 2.6 3  0.6 2.6 3  0.1 2.7 3  0 2.7 3  0.2 2.7 3  0.3 2.7 3  0.4 2.7 3  0.5 2.7 3  0.6 2.7 3  0.1 2.8 3  0 2.8 3  0.2 2.8 3  0.3 2.8 3  0.4 2.8 3  0.5 2.8 3  0.6 2.8 3  0.7 2.8 3  0.1 2.9 3  0 2.9 3  0.2 2.9 3  0.3 2.9 3  0.4 2.9 3  0.5 2.9 3  0.6 2.9 3  0.7 2.9 3  0.8 2.8 3  0.8 2.9 3  0.1 3 3  0 3 3  0.2 3 3  0.3 3 3  0.4 3 3  0.5 3 3  0.6 3 3  0.7 3 3  0.8 2.9 2.9  0.8 3 3  0.9 3 3  0.1 3.1 3  0 3.1 3  0.2 3.1 3  0.3 3.1 3  0.4 3.1 3  0.5 3.1 3  0.6 3.1 3  0.7 3.1 3  0.8 3.1 3  0.9 3.1 3  0.1 3.2 3  0 3.2 3  0.2 3.2 3  0.3 3.2 3  0.4 3.2 3  0.5 3.2 3  0.6 3.2 3  0.7 3.2 3  0.8 3.2 3  0.9 3.2 3  0.1 3.3 3  0 3.3 3  0.2 3.3 3  0.3 3.3 3  0.4 3.3 3  0.5 3.3 3  0.6 3.3 3  0.7 3.3 3  0.8 3.3 3  0.9 3.3 3  1 3.3 3  0.1 3.4 3  0 3.4 3  0.2 3.4 3  0.3 3.4 3  0.4 3.4 3  0.5 3.4 3  0.6 3.4 3  0.7 3.4 3  0.8 3.4 3  0.9 3.4 2.9  0.9 3.4 3  1 3.4 3 
[...]
<PointData  Scalars="p_CO2"> 
<DataArray  type="Float64"  Name="p_CO2"  format="ascii">4.5000000000000000e+01  4.5000000000000000e+01  4.5000707300255343e+01  4.5000693374231609e+01  4.5000000000000000e+01  4.5000000000000000e+01  4.5000677389985867e+01  4.5000000000000000e+01  4.5000000000000000e+01  4.5000659352307011e+01  4.5000000000000000e+01  4.5000000000000000e+01  4.5000639265813867e+01  4.5000000000000000e+01  4.5000000000000000e+01  4.5000617135490117e+01  4.5000000000000000e+01  4.5000000000000000e+01  4.5000592965505284e+01  4.5000000000000000e+01  4.5000000000000000e+01  4.5000566756689217e+01  4.5000000000000000e+01  4.5000000000000000e+01  4.5000538503601831e+01  4.5000000000000000e+01  4.5000000000000000e+01  4.5000000000000000e+01  4.5000000000000000e+01  4.5000744443672687e+01  4.5000000000000000e+01  4.5000740849552699e+01  4.5000000000000000e+01  4.5000742372411800e+01  4.5000000000000000e+01  4.5000736703090283e+01  4.5000735191575060e+01  4.5000000000000000e+01  4.5000000000000000e+01  4.5001500661723597e+01  4.5001489209014522e+01  4.5000728966972417e+01  4.5000727470833759e+01  4.5000000000000000e+01  4.5000000000000000e+01  4.5001473581159189e+01  4.5000719165460659e+01  4.5000717689156758e+01  4.5000000000000000e+01  4.5000000000000000e+01  4.5001453780293012e+01  4.5000705847656299e+01  4.5000000000000000e+01  4.5001429809222763e+01  4.5000691949470905e+01  4.5000000000000000e+01  4.5001401671724011e+01  4.5000675997351813e+01  4.5000000000000000e+01  4.5001369372539294e+01  4.5000657996269645e+01  4.5000000000000000e+01  4.5001332918164969e+01  4.5000637949874573e+01  4.5000000000000000e+01  4.5001292315240264e+01  4.5000615863935892e+01  4.5000000000000000e+01  4.5001247568931127e+01  4.5000591742537196e+01  4.5000000000000000e+01  4.5001198679962108e+01  4.5000565586215011e+01  4.5000000000000000e+01  4.5001145636880885e+01  4.5001148007407124e+01  4.5000537389341886e+01  4.5000000000000000e+01  4.5001090659084348e+01  4.5001088402583420e+01  4.5001657756341061e+01  4.5000508192347006e+01  4.5000507137701611e+01  4.5000000000000000e+01  4.5000000000000000e+01  4.5001029021103093e+01  4.5001026886266629e+01  4.5001564273048210e+01  4.5000475769526190e+01  4.5000474778017484e+01  4.5000000000000000e+01  4.5000000000000000e+01  4.5000962896059264e+01  4.5000960890400265e+01  4.5001463959775130e+01  4.5000440276026808e+01  4.5000000000000000e+01  4.5000000000000000e+01  4.5000890012009528e+01  4.5001356106375965e+01  4.5000403793313723e+01  4.5000000000000000e+01  4.5000000000000000e+01  4.5000361395585252e+01  4.5000000000000000e+01  4.5000000000000000e+01  4.5000333175963775e+01  4.5000000000000000e+01  4.5000745973454961e+01  4.5000740849405048e+01  4.5000742371357767e+01  4.5000000000000000e+01  4.5000000000000000e+01  4.5001500660790612e+01  4.5000737272091051e+01  4.5000000000000000e+01  4.5001493419715359e+01  4.5000731640750651e+01  4.5000000000000000e+01  4.5001482021548895e+01  4.5002273137959115e+01  4.5002255822218466e+01  4.5000723956753170e+01  4.5000000000000000e+01  4.5001466468255487e+01  4.5002232194796697e+01  4.5000714221647861e+01  4.5000000000000000e+01  4.5001446762155965e+01  4.5002202258307889e+01  4.5000702437075297e+01  4.5000000000000000e+01  4.5001422905648667e+01  4.5002166016015330e+01  4.5000688605101480e+01  4.5000000000000000e+01  4.5001394902514015e+01  4.5002123472678583e+01  4.5000672729653424e+01  4.5000000000000000e+01  4.5001362758125829e+01  4.5002074635036188e+01  4.5002084685518028e+01  4.5000654814157883e+01  4.5000000000000000e+01  4.5001326477551075e+01  4.5002029297284430e+01  4.5002019511199187e+01  4.5002738223821524e+01  4.5000634863468434e+01  4.5000000000000000e+01  4.5001286067918052e+01  4.5001967603269598e+01  4.5001958111055856e+01  4.5002655200802984e+01  4.5000612882688188e+01  4.5000000000000000e+01  4.5001241534018519e+01  4.5001890442783534e+01  4.5002563700753782e+01  4.5000588875664796e+01  4.5000000000000000e+01  4.5001192876833592e+01  4.5001816507421239e+01  4.5000562843119191e+01  4.5000000000000000e+01  4.5001140083865238e+01  4.5001736287736030e+01  4.5000534778837135e+01  4.5000000000000000e+01  4.5001083117913041e+01  4.5001649725784759e+01  4.5000504668613935e+01  4.5000000000000000e+01  4.5001021887966111e+01  4.5001556677077531e+01  4.5002122884379773e+01  4.5002112611799703e+01  4.5000472458927149e+01  4.5000000000000000e+01  4.5000956195390408e+01  4.5001456824191074e+01  4.5001987583838556e+01  4.5001977933843492e+01  4.5002694012344243e+01  4.5002523933649364e+01  4.5000438115299829e+01  4.5000000000000000e+01  4.5000885636462350e+01  4.5001349456492811e+01  4.5001842619644130e+01  4.5001833626106752e+01  4.5002342598057801e+01  4.5000401798407196e+01  4.5000000000000000e+01  4.5000812957732805e+01  4.5000808918226681e+01  4.5001233157320513e+01  4.5001678544115840e+01  4.5002149650422822e+01  4.5000359574438100e+01  4.5000000000000000e+01  4.5000728311173077e+01  4.5000724622489209e+01  4.5001104649525018e+01  4.5000331536217182e+01  4.5000000000000000e+01  4.5000625106194740e+01  4.5000621783796859e+01  4.5001110256842679e+01  4.5000962334623786e+01  4.5000957282155341e+01  4.5001510908700517e+01  4.5001329926968680e+01  4.5000218840504559e+01  4.5000000000000000e+01  4.5000470194362585e+01  4.5000794802671699e+01  4.5001135660762067e+01  4.5000000000000000e+01  4.5000000000000000e+01  4.4999888416991240e+01  4.5001949792482314e+01  4.5000000000000000e+01  4.5000000000000000e+01  4.4995159691650713e+01  4.5000000000000000e+01  4.5000000000000000e+01  4.5000000000000000e+01  4.5000000000000000e+01  4.5000000000000000e+01  4.5000000000000000e+01  4.5000739248492096e+01  4.5000741838137067e+01  4.5000736172992291e+01  4.5000000000000000e+01  4.5000000000000000e+01  4.5001502664169060e+01  4.5001491196613067e+01  4.5000736701461726e+01  4.5000000000000000e+01  4.5001503742952373e+01  4.5001492266503888e+01  4.5002271389326168e+01  4.5000735190427775e+01  4.5000000000000000e+01  4.5001489207181798e+01  4.5002266739355179e+01  4.5000731640280144e+01  4.5000000000000000e+01  4.5001482020589449e+01  4.5002255820948037e+01  4.5000726051930393e+01  4.5000000000000000e+01  4.5001470708715757e+01  4.5002238635996704e+01  4.5003057697762600e+01  4.5003034467028144e+01  4.5003057699664510e+01  4.5000718426228836e+01  4.5000000000000000e+01  4.5001455273253121e+01  4.5002215187731530e+01  4.5003025761002462e+01  4.5003002770634602e+01  4.5003863142637798e+01  4.5003822934028911e+01  4.5000708764975442e+01  4.5000000000000000e+01  4.5001435716829150e+01  4.5002185478183748e+01  4.5002985293667862e+01  4.5002962609586277e+01  4.5003771987937668e+01  4.5000697069782568e+01  4.5000000000000000e+01  4.5001412041443672e+01  4.5002149510718006e+01  4.5002936300012991e+01  4.5002913987030247e+01  4.5003710305003786e+01  4.5000683342674932e+01  4.5000000000000000e+01  4.5001384250569032e+01  4.5002107289659662e+01  4.5002878785231694e+01  4.5002856907456540e+01  4.5003637887894115e+01  4.5000667587643179e+01  4.5000000000000000e+01  4.5001352349416095e+01  4.5002058821618022e+01  4.5002812756303356e+01  4.5002791377899861e+01  4.5003554743157778e+01  4.5000649807561111e+01  4.5000000000000000e+01  4.5001316343294782e+01  4.5002004114463261e+01  4.5002717408212469e+01  4.5003460881828538e+01  4.5003487293686440e+01  4.5000630007672065e+01  4.5000000000000000e+01  4.5001276238826250e+01  4.5001943177273844e+01  4.5002635010293254e+01  4.5003381940767824e+01  4.5003356321012980e+01  4.5004111879686455e+01  4.5000608192534116e+01  4.5000000000000000e+01  4.5001232039945151e+01  4.5001876017675237e+01  4.5002544197639459e+01  4.5003265831384894e+01  4.5003241083207158e+01  4.5003971347246797e+01  4.5004001526038572e+01  4.5000584365756104e+01  4.5000000000000000e+01  4.5001183747760663e+01  4.5001802636633357e+01  4.5002463730207346e+01  4.5002444975655173e+01  4.5003138987780730e+01  4.5003115187914176e+01  4.5003846861916934e+01  4.5003817838364618e+01  4.5004557722020827e+01  4.5000558528043399e+01  4.5000000000000000e+01  4.5001131349009256e+01  4.5001723015745696e+01  4.5002355277591626e+01  4.5002337331370761e+01  4.5003001422272483e+01  4.5002978647308218e+01  4.5003679182446987e+01  4.5003651406860413e+01  4.5004360248750665e+01  4.5000530672559421e+01  4.5000000000000000e+01  4.5001074805432147e+01  4.5001637095425345e+01  4.5002238286716796e+01  4.5002221207417229e+01  4.5002853120972233e+01  4.5002831445105315e+01  4.5003472110113904e+01  4.5004147638120997e+01  4.5000500785352457e+01  4.5000000000000000e+01  4.5001014026019170e+01  4.5001544730642919e+01  4.5002096456749328e+01  4.5002673508354121e+01  4.5003280005447401e+01  4.5000468811553041e+01  4.5000000000000000e+01  4.5000948810577277e+01  4.5001445602535469e+01  4.5001962757914825e+01  4.5002504671644367e+01  4.5003075158363650e+01  4.5000434716544710e+01  4.5000000000000000e+01  4.5000878754834744e+01  4.5001338998868491e+01  4.5001819482200119e+01  4.5002324645217556e+01  4.5002857694141227e+01  4.5000398660942153e+01  4.5000000000000000e+01  4.5000802564308437e+01  4.5001223500824707e+01  4.5001665483752681e+01  4.5002133070950372e+01  4.5002627961324130e+01  4.5000356710744619e+01  4.5000000000000000e+01  4.5000718821563069e+01  4.5001095831424379e+01  4.5001498980007696e+01  4.5001945077080570e+01  4.5001929932130075e+01  4.5002386884882064e+01  4.5000328957550529e+01  4.5000000000000000e+01  4.5000616558808858e+01  4.5000949336936159e+01  4.5001319175525985e+01  4.5001716416696645e+01  4.5002136643429814e+01  4.5000216560799593e+01  4.5000000000000000e+01  4.5000465570051837e+01  4.5000787764029283e+01  4.5001126129251709e+01  4.5001497682226663e+01  4.4999886454742935e+01  4.5000000000000000e+01  4.5000421561687737e+01  4.5000417566138701e+01  4.5000580430987291e+01  4.5000940312999553e+01  4.5001281583130684e+01  4.5001948180539081e+01  4.5000000000000000e+01  4.4999874185862772e+01  4.4999870856342234e+01  4.5000446609999031e+01  4.4995158532581982e+01  4.5000000000000000e+01  4.5000040936114068e+01  4.5000038316366300e+01  4.5000323930820549e+01  4.5000000000000000e+01  4.5000000000000000e+01  4.4999983776766804e+01  4.4999981837733735e+01  4.5000249060821311e+01  4.5000728965117183e+01  4.5000728442623149e+01  4.5000000000000000e+01  4.5000000000000000e+01  4.5001476606588405e+01  4.5001475549517792e+01  4.5002247599646331e+01  4.5000727469249021e+01  4.5000000000000000e+01  4.5001473578263081e+01  4.5002242997342144e+01  4.5003046591007688e+01  4.5003040365803997e+01  4.5000723955964361e+01  4.5000000000000000e+01  4.5001466466161681e+01  4.5002232191924918e+01  4.5003072459645779e+01  4.5003025757201350e+01  4.5003852096109000e+01  4.5000718425808053e+01  4.5000000000000000e+01  4.5001455272301705e+01  4.5002215186634096e+01  4.5003002768770280e+01  4.5003892613413910e+01  4.5003822931909227e+01  4.5004716353545291e+01  4.5004680800515231e+01  4.5004729815739537e+01  4.5000710880037332e+01  4.5000000000000000e+01  4.5001439998184559e+01  4.5002191982687073e+01  4.5002971401984382e+01  4.5003783141548283e+01  4.5004680803493393e+01  4.5004632297657892e+01  4.5005581758279575e+01  4.5005524225945585e+01  4.5000701319814027e+01  4.5000000000000000e+01  4.5001420646228958e+01  4.5002162583390785e+01  4.5002931659725071e+01  4.5003732725448884e+01  4.5004618702389145e+01  4.5004570841369336e+01  4.5005451328649144e+01  4.5000689746922845e+01  4.5000000000000000e+01  4.5001397218374564e+01  4.5002126991373629e+01  4.5002883543945345e+01  4.5003671684170094e+01  4.5004543509021460e+01  4.5004496428543625e+01  4.5005508101672902e+01  4.5005418904739244e+01  4.5005363055465175e+01  4.5006379781957534e+01  4.5006277119376371e+01  4.5006342071933624e+01  4.5000676163386537e+01  4.5000000000000000e+01  4.5001369717443055e+01  4.5002085210132847e+01  4.5002827058522776e+01  4.5003600019972481e+01  4.5004455221933291e+01  4.5004409057314319e+01  4.5005314163583421e+01  4.5005259397992077e+01  4.5006220241809373e+01  4.5006156545380357e+01  4.5007106304806094e+01  4.5000660572301761e+01  4.5000000000000000e+01  4.5001338148427941e+01  4.5002037246621612e+01  4.5002762210168704e+01  4.5003517738067082e+01  4.5004353845149296e+01  4.5004308730388708e+01  4.5005193875642085e+01  4.5005140352511710e+01  4.5006018044955027e+01  4.5006947555385821e+01  4.5000642977348342e+01  4.5000000000000000e+01  4.5001302516786559e+01  4.5001983108133238e+01  4.5002689008325724e+01  4.5003424849338842e+01  4.5004239390368667e+01  4.5004195458978145e+01  4.5005058049917174e+01  4.5005005927476546e+01  4.5005861620216535e+01  4.5000623383221694e+01  4.5000000000000000e+01  4.5001262828320755e+01  4.5001922802802532e+01  4.5002607464033581e+01  4.5003321370071760e+01  4.5004069264568706e+01  4.5004906712807617e+01  4.5004856148184622e+01  4.5005922251223552e+01  4.5005746118595276e+01  4.5005687295164229e+01  4.5006635698854204e+01  4.5006568283952021e+01  4.5000601794168439e+01  4.5000000000000000e+01  4.5001219087159008e+01  4.5001856337819028e+01  4.5002517589593353e+01  4.5003207320764055e+01  4.5003930178801596e+01  4.5004739912054752e+01  4.5004691060902857e+01  4.5005551960970507e+01  4.5005495126043044e+01  4.5006412978507157e+01  4.5006347835586560e+01  4.5007581392822559e+01  4.5007328789367918e+01  4.5007254994377227e+01  4.5007505033118186e+01  4.5008222793803846e+01  4.5000578213553283e+01  4.5000000000000000e+01  4.5001171292900302e+01  4.5001783712957241e+01  4.5002419389001062e+01  4.5003082720002112e+01  4.5003778246207709e+01  4.5004510737633147e+01  4.5005339879688123e+01  4.5005285211353822e+01  4.5006169647011276e+01  4.5006106980581130e+01  4.5007052703639609e+01  4.5006981705127544e+01  4.5007915443250226e+01  4.5000552641644447e+01  4.5000000000000000e+01  4.5001119432171983e+01  4.5001704908575704e+01  4.5002312848036198e+01  4.5002947577958373e+01  4.5003613517499808e+01  4.5004315281629587e+01  4.5005110031213142e+01  4.5005057705087630e+01  4.5005905899526233e+01  4.5005845911523885e+01  4.5006685378029054e+01  4.5007581996326152e+01  4.5000525070822270e+01  4.5000000000000000e+01  4.5001063465275429e+01  4.5001619863942672e+01  4.5002197907024907e+01  4.5002801875235804e+01  4.5003436047550558e+01  4.5004104835642345e+01  4.5004862644906417e+01  4.5004812833126856e+01  4.5005622031324314e+01  4.5005564919382905e+01  4.5006366344676714e+01  4.5000495487319199e+01  4.5000000000000000e+01  4.5001003299896261e+01  4.5001528432215949e+01  4.5002074417215432e+01  4.5002645537352613e+01  4.5003245890154204e+01  4.5003920091304600e+01  4.5003879596752626e+01  4.5004598049471376e+01  4.5004550919370992e+01  4.5005264423153804e+01  4.5006025086226636e+01  4.5000463835543378e+01  4.5000000000000000e+01  4.5000938735510090e+01  4.5001430292891371e+01  4.5001942054376237e+01  4.5002478394959027e+01  4.5003043107579607e+01  4.5003677901294843e+01  4.5003639853907693e+01  4.5004316715955447e+01  4.5004272429710092e+01  4.5004945010529582e+01  4.5000430080237862e+01  4.5000000000000000e+01  4.5000869366692768e+01  4.5001324731898869e+01  4.5001800187405223e+01  4.5002300154730349e+01  4.5002827819838998e+01  4.5003421529925042e+01  4.5003386063154558e+01  4.5004019326303066e+01  4.5003978039526338e+01  4.5004607485123259e+01  4.5000394380800465e+01  4.5000000000000000e+01  4.5000793896476758e+01  4.5001210327939219e+01  4.5001647666634746e+01  4.5002110453965003e+01  4.5002600370170057e+01  4.5003151752591251e+01  4.5003118993276182e+01  4.5003706866319789e+01  4.5003668727758971e+01  4.5004252916195313e+01  4.5000352803326379e+01  4.5000000000000000e+01  4.5000710907346466e+01  4.5001083801539842e+01  4.5001482706337697e+01  4.5001909271848909e+01  4.5002361677258854e+01  4.5002869880902544e+01  4.5002839948748942e+01  4.5003345864258101e+01  4.5003882660348630e+01  4.5000325439529369e+01  4.5000000000000000e+01  4.5000609430408346e+01  4.5000938497434788e+01  4.5001304507825509e+01  4.5001697790657460e+01  4.5002113913989831e+01  4.5002577950034599e+01  4.5002550956606342e+01  4.5003011220199319e+01  4.5000213450761251e+01  4.5000000000000000e+01  4.5000459261042202e+01  4.5000778161309825e+01  4.5001113126039918e+01  4.5001481161770045e+01  4.5001880894621451e+01  4.5001860729196714e+01  4.5002278577268939e+01  4.5002254624481331e+01  4.5002666734157891e+01  4.4999883776100923e+01  4.5000000000000000e+01  4.5000412114033182e+01  4.5000572110436011e+01  4.5000929027486208e+01  4.5001267232394817e+01  4.5001624205174302e+01  4.5001606680191728e+01  4.5001953361282226e+01  4.5002314117786725e+01  4.5001945979151820e+01  4.5000000000000000e+01  4.4999866312284922e+01  4.5000439614757440e+01  4.5000770292741514e+01  4.5000760769994820e+01  4.5001074713229123e+01  4.5001062586176296e+01  4.5001352871698174e+01  4.5001647588300990e+01  4.4995156948322112e+01  4.5000000000000000e+01  4.5000034741418332e+01  4.5000318288148911e+01  4.5000637923185415e+01  4.5000630193792098e+01  4.5000865751111640e+01  4.5001098408722349e+01  4.5000000000000000e+01  4.5000000000000000e+01  4.4999979193464917e+01  4.5000244749000544e+01  4.5000399954793458e+01  4.5000394024172081e+01  4.5000625407447217e+01  4.5000719163175177e+01  4.5000000000000000e+01  4.5001456765041368e+01  4.5002217457841425e+01  4.5000717686922194e+01  4.5000000000000000e+01  4.5001453776250663e+01  4.5002212915608254e+01  4.5002999702539661e+01  4.5003878536740913e+01  4.5003870632291516e+01  4.5003819049693256e+01  4.5004676080759133e+01  4.5000714220420122e+01  4.5000000000000000e+01  4.5001446759230447e+01  4.5002202254172460e+01  4.5002985287834683e+01  4.5003800759181615e+01  4.5004653777429318e+01  4.5000708764077743e+01  4.5000000000000000e+01  4.5001435714942687e+01  4.5002185475791087e+01  4.5002962605779068e+01  4.5003771983149207e+01  4.5004618696831137e+01  4.5005508094715253e+01  4.5000701319202733e+01  4.5000000000000000e+01  4.5001420645033996e+01  4.5002162582061224e+01  4.5002931657871180e+01  4.5003732723253094e+01  4.5004570838953839e+01  4.5005451325679800e+01  4.5006445797434388e+01  4.5006379778166419e+01  4.5000691886775527e+01  4.5000000000000000e+01  4.5001401551692659e+01  4.5002133575926990e+01  4.5002892446350614e+01  4.5003682979059811e+01  4.5004510199816288e+01  4.5005379394911614e+01  4.5006464554229240e+01  4.5006296126711398e+01  4.5007266255453395e+01  4.5000680468713085e+01  4.5000000000000000e+01  4.5001378436524334e+01  4.5002098458837146e+01  4.5002844972344548e+01  4.5003622750875429e+01  4.5004436775868427e+01  4.5005292291714888e+01  4.5006194820352590e+01  4.5007150184012076e+01  4.5000667066886670e+01  4.5000000000000000e+01  4.5001351303255660e+01  4.5002057235504573e+01  4.5002789239856220e+01  4.5003552039968689e+01  4.5004350564211187e+01  4.5005190005985426e+01  4.5006075836640527e+01  4.5007013832051364e+01  4.5000651683931807e+01  4.5000000000000000e+01  4.5001320155491840e+01  4.5002009911140725e+01  4.5002725254415367e+01  4.5003470851066929e+01  4.5004251567431524e+01  4.5005072534347669e+01  4.5005939161381086e+01  4.5006857165833551e+01  4.5007832599186663e+01  4.5000634323525013e+01  4.5000000000000000e+01  4.5001284998257482e+01  4.5001956492850617e+01  4.5002653025038938e+01  4.5003379194498088e+01  4.5004139795196046e+01  4.5004939883603768e+01  4.5005784794174374e+01  4.5006768209925667e+01  4.5006680170029654e+01  4.5007631993416737e+01  4.5000614989820754e+01  4.5000000000000000e+01  4.5001245837026239e+01  4.5001896987966106e+01  4.5002572561743200e+01  4.5003277084871364e+01  4.5004015267401265e+01  4.5004792077646606e+01  4.5005612758027503e+01  4.5006482858797774e+01  4.5007731704129604e+01  4.5007408272754191e+01  4.5008503837930206e+01  4.5008395273751276e+01  4.5000593686884194e+01  4.5000000000000000e+01  4.5001202675184963e+01  4.5001831402690520e+01  4.5002483875359246e+01  4.5003164540792518e+01  4.5003878014375047e+01  4.5004629160499761e+01  4.5005423107031312e+01  4.5006265287254749e+01  4.5007161480523827e+01  4.5008117857778288e+01  4.500957140411753