<?xml version="1.0"?>
<VTKFile type="UnstructuredGrid"  version="0.1"  >
<UnstructuredGrid>
<Piece  NumberOfPoints="14082" NumberOfCells="73418">
<Points>
<DataArray  type="Float64"  NumberOfComponents="3"  format="ascii">2.7 1.1 0  2.8 1.1 0  2.8 1.2 0  2.8 1.2 0.1  2.7 1.2 0  2.7 1.2 0.1  2.9 1.1 0  2.9 1.2 0  2.9 1.2 0.1  3 1.2 0  3 1.2 0.1  2.8 1.3 0  2.8 1.3 0.1  2.7 1.3 0  2.7 1.3 0.1  2.9 1.3 0  2.9 1.3 0.1  3 1.3 0  3 1.3 0.1  3.1 1.2 0  3.1 1.3 0  3.1 1.3 0.1  3.1 1.2 0.1  3.2 1.2 0  3.2 1.3 0  3.2 1.3 0.1  3.2 1.2 0.1  3.3 1.2 0  3.3 1.3 0  3.3 1.3 0.1  3.4 1.3 0  3.4 1.3 0.1  2.8 1.4 0  2.8 1.4 0.1  2.7 1.4 0  2.9 1.4 0  2.9 1.4 0.1  3 1.4 0  3 1.4 0.1  3.1 1.4 0  3.1 1.4 0.1  3.2 1.4 0  3.2 1.4 0.1  3.3 1.4 0  3.3 1.4 0.1  3.4 1.4 0  3.4 1.4 0.1  3.5 1.3 0  3.5 1.4 0  3.5 1.4 0.1  3.6 1.3 0  3.6 1.4 0  3.6 1.4 0.1  3.7 1.3 0  3.7 1.4 0  3.7 1.4 0.1  3.8 1.3 0  3.8 1.4 0  3.8 1.4 0.1  3.9 1.3 0  3.9 1.4 0  3.9 1.4 0.1  4 1.3 0  4 1.4 0  4 1.4 0.1  4.1 1.3 0  4.1 1.4 0  4.1 1.4 0.1  4.2 1.3 0  4.2 1.4 0  4.2 1.4 0.1  4.3 1.4 0  4.3 1.4 0.1  2.8 1.5 0  2.8 1.5 0.1  2.7 1.5 0  2.9 1.5 0  2.9 1.5 0.1  3 1.5 0  3 1.5 0.1  3.1 1.5 0  3.1 1.5 0.1  3.2 1.5 0  3.2 1.5 0.1  3.3 1.5 0  3.3 1.5 0.1  3.4 1.5 0  3.4 1.5 0.1  3.5 1.5 0  3.5 1.5 0.1  3.6 1.5 0  3.6 1.5 0.1  3.7 1.5 0  3.7 1.5 0.1  3.8 1.5 0  3.8 1.5 0.1  3.9 1.5 0  3.9 1.5 0.1  4 1.5 0  4 1.5 0.1  4.1 1.5 0  4.1 1.5 0.1  4.2 1.5 0  4.2 1.5 0.1  4.3 1.5 0  4.3 1.5 0.1  4.4 1.4 0  4.4 1.5 0  4.4 1.5 0.1  4.5 1.4 0  4.5 1.5 0  4.5 1.5 0.1  4.6 1.5 0  4.6 1.5 0.1  2.8 1.6 0  2.8 1.6 0.1  2.9 1.6 0  2.9 1.6 0.1  3 1.6 0  3 1.6 0.1  3.1 1.6 0  3.1 1.6 0.1  3.2 1.6 0  3.2 1.6 0.1  3.3 1.6 0  3.3 1.6 0.1  3.4 1.6 0  3.4 1.6 0.1  3.5 1.6 0  3.5 1.6 0.1  3.6 1.6 0  3.6 1.6 0.1  3.7 1.6 0  3.7 1.6 0.1  3.8 1.6 0  3.8 1.6 0.1  3.9 1.6 0  3.9 1.6 0.1  4 1.6 0  4 1.6 0.1  4.1 1.6 0  4.1 1.6 0.1  4.2 1.6 0  4.2 1.6 0.1  4.3 1.6 0  4.3 1.6 0.1  4.4 1.6 0  4.4 1.6 0.1  4.5 1.6 0  4.5 1.6 0.1  4.6 1.6 0  4.6 1.6 0.1  4.7 1.5 0  4.7 1.6 0  4.7 1.6 0.1  4.8 1.5 0  4.8 1.6 0  4.8 1.6 0.1  4.9 1.5 0  4.9 1.6 0  4.9 1.6 0.1  5 1.5 0  5 1.6 0  5 1.6 0.1  2.9 1.7 0  2.9 1.7 0.1  2.8 1.7 0  2.8 1.7 0.1  3 1.7 0  3 1.7 0.1  3.1 1.7 0  3.1 1.7 0.1  3.2 1.7 0  3.2 1.7 0.1  3.3 1.7 0  3.3 1.7 0.1  3.4 1.7 0  3.4 1.7 0.1  3.5 1.7 0  3.5 1.7 0.1  3.6 1.7 0  3.6 1.7 0.1  3.7 1.7 0  3.7 1.7 0.1  3.8 1.7 0  3.8 1.7 0.1  3.9 1.7 0  3.9 1.7 0.1  4 1.7 0  4 1.7 0.1  4.1 1.7 0  4.1 1.7 0.1  4.2 1.7 0  4.2 1.7 0.1  4.3 1.7 0  4.3 1.7 0.1  4.4 1.7 0  4.4 1.7 0.1  4.5 1.7 0  4.5 1.7 0.1  4.6 1.7 0  4.6 1.7 0.1  4.7 1.7 0  4.7 1.7 0.1  4.8 1.7 0  4.8 1.7 0.1  4.9 1.7 0  4.9 1.7 0.1  5 1.7 0  5 1.7 0.1  2.9 1.8 0  2.9 1.8 0.1  2.8 1.8 0  2.8 1.8 0.1  3 1.8 0  3 1.8 0.1  3.1 1.8 0  3.1 1.8 0.1  3.2 1.8 0  3.2 1.8 0.1  3.3 1.8 0  3.3 1.8 0.1  3.4 1.8 0  3.4 1.8 0.1  3.5 1.8 0  3.5 1.8 0.1  3.6 1.8 0  3.6 1.8 0.1  3.7 1.8 0  3.7 1.8 0.1  3.8 1.8 0  3.8 1.8 0.1  3.9 1.8 0  3.9 1.8 0.1  4 1.8 0  4 1.8 0.1  4.1 1.8 0  4.1 1.8 0.1  4.2 1.8 0  4.2 1.8 0.1  4.3 1.8 0  4.3 1.8 0.1  4.4 1.8 0  4.4 1.8 0.1  4.5 1.8 0  4.5 1.8 0.1  4.6 1.8 0  4.6 1.8 0.1  4.7 1.8 0  4.7 1.8 0.1  4.8 1.8 0  4.8 1.8 0.1  4.9 1.8 0  4.9 1.8 0.1  5 1.8 0  5 1.8 0.1  2.9 1.9 0  2.9 1.9 0.1  2.8 1.9 0  2.8 1.9 0.1  3 1.9 0  3 1.9 0.1  3.1 1.9 0  3.1 1.9 0.1  3.2 1.9 0  3.2 1.9 0.1  3.3 1.9 0  3.3 1.9 0.1  3.4 1.9 0  3.4 1.9 0.1  3.5 1.9 0  3.5 1.9 0.1  3.6 1.9 0  3.6 1.9 0.1  3.7 1.9 0  3.7 1.9 0.1  3.8 1.9 0  3.8 1.9 0.1  3.9 1.9 0  3.9 1.9 0.1  4 1.9 0  4 1.9 0.1  4.1 1.9 0  4.1 1.9 0.1  4.2 1.9 0  4.2 1.9 0.1  4.3 1.9 0  4.3 1.9 0.1  4.4 1.9 0  4.4 1.9 0.1  4.5 1.9 0  4.5 1.9 0.1  4.6 1.9 0  4.6 1.9 0.1  4.7 1.9 0  4.7 1.9 0.1  4.8 1.9 0  4.8 1.9 0.1  4.9 1.9 0  4.9 1.9 0.1  5 1.9 0  5 1.9 0.1  2.9 2 0  2.9 2 0.1  2.8 2 0  3 2 0  3 2 0.1  3.1 2 0  3.1 2 0.1  3.2 2 0  3.2 2 0.1  3.3 2 0  3.3 2 0.1  3.4 2 0  3.4 2 0.1  3.5 2 0  3.5 2 0.1  3.6 2 0  3.6 2 0.1  3.7 2 0  3.7 2 0.1  3.8 2 0  3.8 2 0.1  3.9 2 0  3.9 2 0.1  4 2 0  4 2 0.1  4.1 2 0  4.1 2 0.1  4.2 2 0  4.2 2 0.1  4.3 2 0  4.3 2 0.1  4.4 2 0  4.4 2 0.1  4.5 2 0  4.5 2 0.1  4.6 2 0  4.6 2 0.1  4.7 2 0  4.7 2 0.1  4.8 2 0  4.8 2 0.1  4.9 2 0  4.9 2 0.1  5 2 0  5 2 0.1  2.9 2.1 0  2.9 2.1 0.1  2.8 2.1 0  3 2.1 0  3 2.1 0.1  3.1 2.1 0  3.1 2.1 0.1  3.2 2.1 0  3.2 2.1 0.1  3.3 2.1 0  3.3 2.1 0.1  3.4 2.1 0  3.4 2.1 0.1  3.5 2.1 0  3.5 2.1 0.1  3.6 2.1 0  3.6 2.1 0.1  3.7 2.1 0  3.7 2.1 0.1  3.8 2.1 0  3.8 2.1 0.1  3.9 2.1 0  3.9 2.1 0.1  4 2.1 0  4 2.1 0.1  4.1 2.1 0  4.1 2.1 0.1  4.2 2.1 0  4.2 2.1 0.1  4.3 2.1 0  4.3 2.1 0.1  4.4 2.1 0  4.4 2.1 0.1  4.5 2.1 0  4.5 2.1 0.1  4.6 2.1 0  4.6 2.1 0.1  4.7 2.1 0  4.7 2.1 0.1  4.8 2.1 0  4.8 2.1 0.1  4.9 2.1 0  4.9 2.1 0.1  5 2.1 0  5 2.1 0.1  2.9 2.2 0  2.9 2.2 0.1  2.8 2.2 0  3 2.2 0  3 2.2 0.1  3.1 2.2 0  3.1 2.2 0.1  3.2 2.2 0  3.2 2.2 0.1  3.3 2.2 0  3.3 2.2 0.1  3.4 2.2 0  3.4 2.2 0.1  3.5 2.2 0  3.5 2.2 0.1  3.6 2.2 0  3.6 2.2 0.1  3.7 2.2 0  3.7 2.2 0.1  3.8 2.2 0  3.8 2.2 0.1  3.9 2.2 0  3.9 2.2 0.1  4 2.2 0  4 2.2 0.1  4.1 2.2 0  4.1 2.2 0.1  4.2 2.2 0  4.2 2.2 0.1  4.3 2.2 0  4.3 2.2 0.1  4.4 2.2 0  4.4 2.2 0.1  4.5 2.2 0  4.5 2.2 0.1  4.6 2.2 0  4.6 2.2 0.1  4.7 2.2 0  4.7 2.2 0.1  4.8 2.2 0  4.8 2.2 0.1  4.9 2.2 0  4.9 2.2 0.1  5 2.2 0  5 2.2 0.1  2.9 2.3 0  2.9 2.3 0.1  2.8 2.3 0  3 2.3 0  3 2.3 0.1  3.1 2.3 0  3.1 2.3 0.1  3.2 2.3 0  3.2 2.3 0.1  3.3 2.3 0  3.3 2.3 0.1  3.4 2.3 0  3.4 2.3 0.1  3.5 2.3 0  3.5 2.3 0.1  3.6 2.3 0  3.6 2.3 0.1  3.7 2.3 0  3.7 2.3 0.1  3.8 2.3 0  3.8 2.3 0.1  3.9 2.3 0  3.9 2.3 0.1  4 2.3 0  4 2.3 0.1  4.1 2.3 0  4.1 2.3 0.1  4.2 2.3 0  4.2 2.3 0.1  4.3 2.3 0  4.3 2.3 0.1  4.4 2.3 0  4.4 2.3 0.1  4.5 2.3 0  4.5 2.3 0.1  4.6 2.3 0  4.6 2.3 0.1  4.7 2.3 0  4.7 2.3 0.1  4.8 2.3 0  4.8 2.3 0.1  4.9 2.3 0  4.9 2.3 0.1  5 2.3 0  5 2.3 0.1  2.9 2.4 0  2.9 2.4 0.1  2.8 2.4 0  2.8 2.4 0.1  3 2.4 0  3 2.4 0.1  3.1 2.4 0  3.1 2.4 0.1  3.2 2.4 0  3.2 2.4 0.1  3.3 2.4 0  3.3 2.4 0.1  3.4 2.4 0  3.4 2.4 0.1  3.5 2.4 0  3.5 2.4 0.1  3.6 2.4 0  3.6 2.4 0.1  3.7 2.4 0  3.7 2.4 0.1  3.8 2.4 0  3.8 2.4 0.1  3.9 2.4 0  3.9 2.4 0.1  4 2.4 0  4 2.4 0.1  4.1 2.4 0  4.1 2.4 0.1  4.2 2.4 0  4.2 2.4 0.1  4.3 2.4 0  4.3 2.4 0.1  4.4 2.4 0  4.4 2.4 0.1  4.5 2.4 0  4.5 2.4 0.1  4.6 2.4 0  4.6 2.4 0.1  4.7 2.4 0  4.7 2.4 0.1  4.8 2.4 0  4.8 2.4 0.1  4.9 2.4 0  4.9 2.4 0.1  5 2.4 0  5 2.4 0.1  2.7 2.4 0  2.8 2.5 0  2.8 2.5 0.1  2.7 2.5 0  2.9 2.5 0  2.9 2.5 0.1  3 2.5 0  3 2.5 0.1  3.1 2.5 0  3.1 2.5 0.1  3.2 2.5 0  3.2 2.5 0.1  3.3 2.5 0  3.3 2.5 0.1  3.4 2.5 0  3.4 2.5 0.1  3.5 2.5 0  3.5 2.5 0.1  3.6 2.5 0  3.6 2.5 0.1  3.7 2.5 0  3.7 2.5 0.1  3.8 2.5 0  3.8 2.5 0.1  3.9 2.5 0  3.9 2.5 0.1  4 2.5 0  4 2.5 0.1  4.1 2.5 0  4.1 2.5 0.1  4.2 2.5 0  4.2 2.5 0.1  4.3 2.5 0  4.3 2.5 0.1  4.4 2.5 0  4.4 2.5 0.1  4.5 2.5 0  4.5 2.5 0.1  4.6 2.5 0  4.6 2.5 0.1  4.7 2.5 0  4.7 2.5 0.1  4.8 2.5 0  4.8 2.5 0.1  4.9 2.5 0  4.9 2.5 0.1  5 2.5 0  5 2.5 0.1  2.8 2.6 0  2.8 2.6 0.1  2.7 2.6 0  2.9 2.6 0  2.9 2.6 0.1  3 2.6 0  3 2.6 0.1  3.1 2.6 0  3.1 2.6 0.1  3.2 2.6 0  3.2 2.6 0.1  3.3 2.6 0  3.3 2.6 0.1  3.4 2.6 0  3.4 2.6 0.1  3.5 2.6 0  3.5 2.6 0.1  3.6 2.6 0  3.6 2.6 0.1  3.7 2.6 0  3.7 2.6 0.1  3.8 2.6 0  3.8 2.6 0.1  3.9 2.6 0  3.9 2.6 0.1  4 2.6 0  4 2.6 0.1  4.1 2.6 0  4.1 2.6 0.1  4.2 2.6 0  4.2 2.6 0.1  4.3 2.6 0  4.3 2.6 0.1  4.4 2.6 0  4.4 2.6 0.1  4.5 2.6 0  4.5 2.6 0.1  4.6 2.6 0  4.6 2.6 0.1  4.7 2.6 0  4.7 2.6 0.1  4.8 2.6 0  4.8 2.6 0.1  4.9 2.6 0  4.9 2.6 0.1  5 2.6 0  5 2.6 0.1  2.8 2.7 0  2.8 2.7 0.1  2.7 2.7 0  2.9 2.7 0  2.9 2.7 0.1  3 2.7 0  3 2.7 0.1  3.1 2.7 0  3.1 2.7 0.1  3.2 2.7 0  3.2 2.7 0.1  3.3 2.7 0  3.3 2.7 0.1  3.4 2.7 0  3.4 2.7 0.1  3.5 2.7 0  3.5 2.7 0.1  3.6 2.7 0  3.6 2.7 0.1  3.7 2.7 0  3.7 2.7 0.1  3.8 2.7 0  3.8 2.7 0.1  3.9 2.7 0  3.9 2.7 0.1  4 2.7 0  4 2.7 0.1  4.1 2.7 0  4.1 2.7 0.1  4.2 2.7 0  4.2 2.7 0.1  4.3 2.7 0  4.3 2.7 0.1  4.4 2.7 0  4.4 2.7 0.1  4.5 2.7 0  4.5 2.7 0.1  4.6 2.7 0  4.6 2.7 0.1  4.7 2.7 0  4.7 2.7 0.1  4.8 2.7 0  4.8 2.7 0.1  4.9 2.7 0  4.9 2.7 0.1  5 2.7 0  5 2.7 0.1  2.8 2.8 0  2.8 2.8 0.1  2.7 2.8 0  2.9 2.8 0  2.9 2.8 0.1  3 2.8 0  3 2.8 0.1  3.1 2.8 0  3.1 2.8 0.1  3.2 2.8 0  3.2 2.8 0.1  3.3 2.8 0  3.3 2.8 0.1  3.4 2.8 0  3.4 2.8 0.1  3.5 2.8 0  3.5 2.8 0.1  3.6 2.8 0  3.6 2.8 0.1  3.7 2.8 0  3.7 2.8 0.1  3.8 2.8 0  3.8 2.8 0.1  3.9 2.8 0  3.9 2.8 0.1  4 2.8 0  4 2.8 0.1  4.1 2.8 0  4.1 2.8 0.1  4.2 2.8 0  4.2 2.8 0.1  4.3 2.8 0  4.3 2.8 0.1  4.4 2.8 0  4.4 2.8 0.1  4.5 2.8 0  4.5 2.8 0.1  4.6 2.8 0  4.6 2.8 0.1  4.7 2.8 0  4.7 2.8 0.1  4.8 2.8 0  4.8 2.8 0.1  4.9 2.8 0  4.9 2.8 0.1  5 2.8 0  5 2.8 0.1  2.6 2.8 0  2.7 2.9 0  2.7 2.9 0.1  2.6 2.9 0  2.8 2.9 0  2.8 2.9 0.1  2.9 2.9 0  2.9 2.9 0.1  3 2.9 0  3 2.9 0.1  3.1 2.9 0  3.1 2.9 0.1  3.2 2.9 0  3.2 2.9 0.1  3.3 2.9 0  3.3 2.9 0.1  3.4 2.9 0  3.4 2.9 0.1  3.5 2.9 0  3.5 2.9 0.1  3.6 2.9 0  3.6 2.9 0.1  3.7 2.9 0  3.7 2.9 0.1  3.8 2.9 0  3.8 2.9 0.1  3.9 2.9 0  3.9 2.9 0.1  4 2.9 0  4 2.9 0.1  4.1 2.9 0  4.1 2.9 0.1  4.2 2.9 0  4.2 2.9 0.1  4.3 2.9 0  4.3 2.9 0.1  4.4 2.9 0  4.4 2.9 0.1  4.5 2.9 0  4.5 2.9 0.1  4.6 2.9 0  4.6 2.9 0.1  4.7 2.9 0  4.7 2.9 0.1  4.8 2.9 0  4.8 2.9 0.1  4.9 2.9 0  4.9 2.9 0.1  5 2.9 0  5 2.9 0.1  2.7 3 0  2.7 3 0.1  2.6 3 0  2.6 3 0.1  2.8 3 0  2.8 3 0.1  2.9 3 0  2.9 3 0.1  3 3 0  3 3 0.1  3.1 3 0  3.1 3 0.1  3.2 3 0  3.2 3 0.1  3.3 3 0  3.3 3 0.1  3.4 3 0  3.4 3 0.1  3.5 3 0  3.5 3 0.1  3.6 3 0  3.6 3 0.1  3.7 3 0  3.7 3 0.1  3.8 3 0  3.8 3 0.1  3.9 3 0  3.9 3 0.1  4 3 0  4 3 0.1  4.1 3 0  4.1 3 0.1  4.2 3 0  4.2 3 0.1  4.3 3 0  4.3 3 0.1  4.4 3 0  4.4 3 0.1  4.5 3 0  4.5 3 0.1  4.6 3 0  4.6 3 0.1  4.7 3 0  4.7 3 0.1  4.8 3 0  4.8 3 0.1  4.9 3 0  4.9 3 0.1  5 3 0  5 3 0.1  2.5 3 0  2.6 3.1 0  2.6 3.1 0.1  2.5 3.1 0  2.7 3.1 0  2.7 3.1 0.1  2.8 3.1 0  2.8 3.1 0.1  2.9 3.1 0  2.9 3.1 0.1  3 3.1 0  3 3.1 0.1  3.1 3.1 0  3.1 3.1 0.1  3.2 3.1 0  3.2 3.1 0.1  3.3 3.1 0  3.3 3.1 0.1  3.4 3.1 0  3.4 3.1 0.1  3.5 3.1 0  3.5 3.1 0.1  3.6 3.1 0  3.6 3.1 0.1  3.7 3.1 0  3.7 3.1 0.1  3.8 3.1 0  3.8 3.1 0.1  3.9 3.1 0  3.9 3.1 0.1  4 3.1 0  4 3.1 0.1  4.1 3.1 0  4.1 3.1 0.1  4.2 3.1
[...]
<PointData  Scalars="p_CO2"> 
<DataArray  type="Float64"  Name="p_CO2"  format="ascii">4.5008950035853651e+01  4.5010068960857261e+01  4.5010399402257100e+01  4.5013513257886082e+01  4.5009259134006314e+01  4.5012034788945115e+01  4.5011353370717828e+01  4.5011704829042252e+01  4.5015204914952321e+01  4.5013205388825810e+01  4.5017148193374190e+01  4.5010686563592898e+01  4.5013886524667697e+01  4.5009529911146949e+01  4.5012386846201402e+01  4.5012007460038909e+01  4.5015598176475706e+01  4.5013521902271385e+01  4.5017559354018779e+01  4.5014937719088046e+01  4.5015265655963965e+01  4.5019815806798029e+01  4.5019389982412001e+01  4.5016946932897021e+01  4.5017282723200168e+01  4.5022423696204932e+01  4.5021987895290522e+01  4.5019289045064419e+01  4.5019627725319168e+01  4.5025452559444794e+01  4.5022369166596015e+01  4.5028989345052125e+01  4.5010934152616066e+01  4.5014208364094884e+01  4.5009765277135905e+01  4.5012265961544330e+01  4.5015934102995132e+01  4.5013789349754184e+01  4.5017906785115365e+01  4.5015539261154501e+01  4.5020171086539662e+01  4.5017558683237532e+01  4.5022781843952046e+01  4.5019901006560190e+01  4.5025806988252135e+01  4.5022633272575050e+01  4.5029331559536800e+01  4.5025593989654190e+01  4.5025840728456842e+01  4.5033463305345471e+01  4.5029414075621318e+01  4.5029633353714217e+01  4.5038340647336369e+01  4.5033975746491912e+01  4.5034155431051524e+01  4.5044144271226209e+01  4.5039474030340223e+01  4.5039599943596180e+01  4.5051114390161558e+01  4.5046174700960108e+01  4.5046230831341930e+01  4.5059577131088069e+01  4.5054449472615694e+01  4.5054418513081089e+01  4.5069986015765359e+01  4.5064834299049579e+01  4.5064698635218249e+01  4.5082989081166296e+01  4.5078128936738324e+01  4.5077872207238741e+01  4.5099542404780422e+01  4.5095195133531291e+01  4.5121105873773153e+01  4.5011145831554430e+01  4.5014483532331759e+01  4.5009968156176406e+01  4.5012484892585704e+01  4.5016218614216143e+01  4.5014013371915091e+01  4.5018197808483450e+01  4.5015765466237561e+01  4.5020464816401777e+01  4.5017783267183539e+01  4.5023073306096656e+01  4.5020119111984513e+01  4.5026089833621427e+01  4.5022838829766840e+01  4.5029597858405012e+01  4.5026026314418381e+01  4.5033703362748845e+01  4.5029790091510350e+01  4.5038542872635652e+01  4.5034272967782663e+01  4.5044295147165293e+01  4.5039666554522157e+01  4.5051198606134136e+01  4.5046233710495784e+01  4.5059577958007701e+01  4.5054344322818999e+01  4.5069886014327921e+01  4.5064534387123302e+01  4.5082771234577095e+01  4.5077606536339715e+01  4.5099191753331390e+01  4.5094820004477612e+01  4.5120611683880242e+01  4.5118712741389558e+01  4.5118225585772251e+01  4.5149357190769813e+01  4.5151976107509014e+01  4.5151382418574798e+01  4.5189429904892336e+01  4.5202208267048789e+01  4.5247133487389839e+01  4.5011325114407398e+01  4.5014716592434283e+01  4.5012668559277138e+01  4.5016457301779639e+01  4.5014199210036686e+01  4.5018439229925306e+01  4.5015950605271854e+01  4.5020705218782830e+01  4.5017964065910903e+01  4.5023307932552548e+01  4.5020291049657743e+01  4.5026312780004687e+01  4.5022996405041347e+01  4.5029801942765303e+01  4.5026162971859442e+01  4.5033880027845385e+01  4.5029898192168929e+01  4.5038682149308165e+01  4.5034343838581222e+01  4.5044385715417654e+01  4.5039690645300659e+01  4.5051227999677131e+01  4.5046200906972601e+01  4.5059532966842262e+01  4.5054244454814352e+01  4.5069753340892426e+01  4.5064357973656520e+01  4.5082538453241526e+01  4.5077345796735770e+01  4.5098848606007756e+01  4.5094470144780999e+01  4.5120151712525654e+01  4.5117786351843336e+01  4.5148779677702358e+01  4.5150859951673162e+01  4.5188742112693042e+01  4.5201617704918483e+01  4.5246353071236733e+01  4.5278317792680618e+01  4.5277685301116541e+01  4.5336776134012467e+01  4.5462100738392003e+01  4.5461486290457202e+01  4.5484326556602682e+01  4.5940417865036437e+01  4.5939953659037712e+01  4.5648175488761879e+01  4.5753641346497226e+01  4.5753240787356901e+01  4.5787864195298077e+01  4.5012820932606523e+01  4.5016655323699851e+01  4.5011475285213201e+01  4.5014911811636374e+01  4.5014351630371351e+01  4.5018637237681396e+01  4.5016100350268161e+01  4.5020899656316388e+01  4.5018107766906311e+01  4.5023494401576684e+01  4.5020424618478344e+01  4.5026485945047689e+01  4.5023114977705063e+01  4.5029955456617280e+01  4.5026260880395583e+01  4.5034006494830884e+01  4.5029968981650143e+01  4.5038773147888641e+01  4.5034380352516152e+01  4.5044431907847105e+01  4.5039685203525977e+01  4.5051219362842595e+01  4.5046145604630091e+01  4.5059459177190099e+01  4.5054131605276481e+01  4.5069604347678613e+01  4.5064180719781227e+01  4.5082305264331232e+01  4.5077098898248515e+01  4.5098524295769479e+01  4.5094150939268573e+01  4.5119732640531062e+01  4.5117395887893977e+01  4.5148266894775141e+01  4.5150404332303637e+01  4.5188142964280836e+01  4.5201110042900993e+01  4.5245682940794104e+01  4.5277147256632396e+01  4.5336061588415099e+01  4.5460966861855596e+01  4.5483608935560063e+01  4.5939561137132976e+01  4.5647499762525996e+01  4.5752902959123112e+01  4.5787287216714475e+01  4.5012945598136916e+01  4.5016817336524547e+01  4.5011599347012606e+01  4.5015073090749297e+01  4.5014474879460650e+01  4.5018797345616299e+01  4.5016219684950222e+01  4.5021054598984982e+01  4.5018220158306683e+01  4.5023640226402406e+01  4.5020526461948499e+01  4.5026617948764375e+01  4.5023202066333546e+01  4.5030068150700586e+01  4.5026328404996377e+01  4.5034093607164849e+01  4.5030011576360153e+01  4.5038827678898706e+01  4.5034392194130568e+01  4.5044446261108291e+01  4.5039660187912538e+01  4.5051185572121199e+01  4.5046077612473368e+01  4.5059369251651333e+01  4.5054014875963730e+01  4.5069450753669223e+01  4.5064010340171087e+01  4.5082081553299311e+01  4.5076871406528106e+01  4.5098225878099498e+01  4.5093865042530744e+01  4.5119357691321326e+01  4.5117053290008535e+01  4.5147817375496899e+01  4.5150010719152874e+01  4.5187625785339186e+01  4.5200676577281598e+01  4.5245111248169998e+01  4.5276691777309914e+01  4.5335457250951748e+01  4.5460529376200974e+01  4.5483005495448595e+01  4.5939230348570696e+01  4.5646933395353379e+01  4.5752618878396532e+01  4.5786803801174564e+01  4.5013045723619641e+01  4.5016947455531863e+01  4.5011699982404764e+01  4.5015203915296006e+01  4.5014572664529929e+01  4.5018924369427502e+01  4.5016312906102037e+01  4.5021175626579961e+01  4.5018306164763281e+01  4.5023751799232706e+01  4.5020602150215900e+01  4.5026716018945478e+01  4.5023263873628657e+01  4.5030148071588975e+01  4.5026372328494233e+01  4.5034150158691070e+01  4.5030033228539928e+01  4.5038855138775659e+01  4.5034386903874037e+01  4.5044438537020184e+01  4.5039623162006436e+01  4.5051136409018170e+01  4.5046004163087325e+01  4.5059272527839312e+01  4.5053900726236535e+01  4.5069300873229224e+01  4.5063852005986938e+01  4.5081873939238633e+01  4.5076666657629104e+01  4.5097957559752004e+01  4.5093613434374063e+01  4.5119027974477177e+01  4.5116756769967061e+01  4.5147428587752380e+01  4.5149674359685861e+01  4.5187184126671255e+01  4.5200309724881365e+01  4.5244627755353086e+01  4.5276309012498324e+01  4.5334949779037032e+01  4.5460163201370214e+01  4.5482501140038487e+01  4.5938953054810270e+01  4.5646461216835839e+01  4.5752381192966006e+01  4.5786400807077065e+01  4.5013124046732017e+01  4.5017049236859130e+01  4.5011779533080514e+01  4.5014648156184300e+01  4.5019022426752898e+01  4.5016383646913155e+01  4.5021267456208093e+01  4.5018369898336033e+01  4.5023834458181859e+01  4.5020656272646335e+01  4.5026786111046910e+01  4.5023305437521444e+01  4.5030201754291816e+01  4.5026398071951668e+01  4.5034183178511675e+01  4.5030039631724044e+01  4.5038862905869181e+01  4.5034370283811242e+01  4.5044416247481060e+01  4.5039579810195377e+01  4.5051079224229085e+01  4.5045930535573000e+01  4.5059175818627864e+01  4.5053793684572334e+01  4.5069160532138227e+01  4.5063709113107741e+01  4.5081686760349008e+01  4.5076486523147700e+01  4.5097721679129769e+01  4.5093396107640586e+01  4.5118743364254314e+01  4.5116504185982684e+01  4.5147097598209548e+01  4.5149390882011758e+01  4.5186812111956890e+01  4.5200003033284091e+01  4.5244223803861409e+01  4.5275990882960315e+01  4.5334528284679457e+01  4.5459859746118966e+01  4.5482083771358020e+01  4.5938722493557961e+01  4.5646071161172081e+01  4.5752183922891646e+01  4.5786067755056216e+01  4.5013182871530468e+01  4.5017125674548772e+01  4.5011839987990925e+01  4.5014703997380266e+01  4.5019094951534200e+01  4.5016434905091451e+01  4.5021333981506281e+01  4.5018414715543265e+01  4.5023892561240523e+01  4.5020692530033550e+01  4.5026833029792058e+01  4.5023330768038853e+01  4.5030234401836324e+01  4.5026409888152926e+01  4.5034198182135597e+01  4.5030035180757871e+01  4.5038856675652333e+01  4.5034346727863714e+01  4.5044385082199852e+01  4.5039534340976672e+01  4.5051019459452185e+01  4.5045860524561839e+01  4.5059084020800846e+01  4.5053696870198408e+01  4.5069033740138721e+01  4.5063583823420856e+01  4.5081522771523083e+01  4.5076331931158464e+01  4.5097519375071933e+01  4.5093212519462163e+01  4.5118503069048884e+01  4.5116293362605852e+01  4.5146821471762642e+01  4.5149156443676596e+01  4.5186504607080089e+01  4.5199751133774221e+01  4.5243892218599669e+01  4.5275730849048763e+01  4.5334183987307640e+01  4.5459612131416144e+01  4.5481743769510196e+01  4.5938533174314749e+01  4.5645753689793594e+01  4.5752022248299205e+01  4.5785796340663616e+01  4.5013224074532936e+01  4.5017179206618451e+01  4.5011882978438187e+01  4.5014742323028045e+01  4.5019144716309150e+01  4.5016469079952913e+01  4.5021378318333269e+01  4.5018443275959712e+01  4.5023929562006764e+01  4.5020713825004826e+01  4.5026860541899040e+01  4.5023342972259961e+01  4.5030250045749042e+01  4.5026411029667301e+01  4.5034199386999084e+01  4.5030023185806584e+01  4.5038840737512118e+01  4.5034319487215313e+01  4.5044349250725396e+01  4.5039489799551426e+01  4.5050961052374269e+01  4.5045796795021147e+01  4.5059000572781969e+01  4.5053612372904574e+01  4.5068923181740011e+01  4.5063477448619302e+01  4.5081383638310250e+01  4.5076203223551083e+01  4.5097351041068798e+01  4.5093061880297469e+01  4.5118306001205930e+01  4.5116122282449759e+01  4.5146597509012345e+01  4.5148967794838462e+01  4.5186257287405887e+01  4.5199549664465145e+01  4.5243627189171718e+01  4.5275523712930863e+01  4.5333909928011096e+01  4.5459414935099360e+01  4.5481473593527504e+01  4.5938380712297793e+01  4.5645501357040487e+01  4.5751892341989276e+01  4.5785580064827187e+01  4.5013249111840480e+01  4.5017211725611858e+01  4.5011909780743082e+01  4.5014764777743025e+01  4.5019173857935861e+01  4.5016488004855447e+01  4.5021402848348309e+01  4.5018457594681095e+01  4.5023948076924633e+01  4.5020722334506679e+01  4.5026871473785889e+01  4.5023344356192176e+01  4.5030251678558187e+01  4.5026403880558419e+01  4.5034189885572076e+01  4.5030006039085805e+01  4.5038818193139001e+01  4.5034290871911033e+01  4.5044311744515703e+01  4.5039448302061416e+01  4.5050906739541524e+01  4.5045741140920491e+01  4.5058927788051228e+01  4.5053541523522341e+01  4.5068830564214139e+01  4.5063390714659818e+01  4.5081270275652621e+01  4.5076100387512639e+01  4.5097216627689924e+01  4.5092943337153010e+01  4.5118151010893278e+01  4.5115989194183705e+01  4.5146423381456202e+01  4.5148822295080585e+01  4.5186066652540511e+01  4.5199395193975846e+01  4.5243424157556525e+01  4.5275365455286803e+01  4.5333700740299143e+01  4.5459263991139331e+01  4.5481267478976214e+01  4.5938261691704639e+01  4.5645308488197493e+01  4.5751791238251215e+01  4.5785413960508563e+01  4.5013259030475226e+01  4.5017224591947560e+01  4.5011921317700079e+01  4.5015491601840694e+01  4.5014772534189476e+01  4.5019183900671912e+01  4.5016492977856750e+01  4.5021409257916815e+01  4.5018459086073364e+01  4.5023949943238499e+01  4.5020719573206399e+01  4.5026867791739441e+01  4.5023336507766530e+01  4.5030241360792601e+01  4.5026390062688229e+01  4.5034171782054315e+01  4.5029985345179192e+01  4.5038791121958184e+01  4.5034262402919211e+01  4.5044274532845975e+01  4.5039411207616467e+01  4.5050858277637680e+01  4.5045694669538676e+01  4.5058867093976154e+01  4.5053485083439156e+01  4.5068756861791144e+01  4.5063323940555094e+01  4.5081183080626943e+01  4.5076023217166977e+01  4.5097115844036658e+01  4.5092856092642400e+01  4.5118037032461778e+01  4.5115892677239586e+01  4.5146297206201567e+01  4.5148717912612184e+01  4.5185930014855018e+01  4.5199285151634491e+01  4.5243279717371891e+01  4.5275253110564492e+01  4.5333552474583065e+01  4.5459156239247122e+01  4.5481121213855246e+01  4.5938173561805620e+01  4.5645170944958252e+01  4.5751716733132731e+01  4.5785294392027780e+01  4.5010734059985460e+01  4.5011918162966658e+01  4.5015487479492812e+01  4.5010732066132128e+01  4.5013254475557794e+01  4.5017218643852161e+01  4.5014766309569154e+01  4.5019175776217871e+01  4.5016484784825685e+01  4.5021398567945084e+01  4.5018448598033679e+01  4.5023936261914855e+01  4.5020706438420248e+01  4.5026850661166513e+01  4.5023320355087371e+01  4.5030220297295074e+01  4.5026370509701849e+01  4.5034146287245086e+01  4.5029962009140831e+01  4.5038760696903779e+01  4.5034234914918748e+01  4.5044238696875659e+01  4.5039379231626540e+01  4.5050816592051831e+01  4.5045657923027548e+01  4.5058819189696685e+01  4.5053443364209940e+01  4.5068702472458860e+01  4.5063277152565767e+01  4.5081122077693344e+01  4.5075971403640608e+01  4.5097048276519885e+01  4.5092799467934981e+01  4.5117963168505874e+01  4.5115831667432651e+01  4.5146217579773385e+01  4.5148653209192766e+01  4.5185845478265207e+01  4.5199217771400654e+01  4.5243191535734020e+01  4.5275184675563914e+01  4.5333462469666209e+01  4.5459089618246310e+01  4.5481031979475496e+01  4.5938114558150062e+01  4.5645085959513054e+01  4.5751667312400606e+01  4.5785218913413196e+01  4.5011900545126899e+01  4.5015464550972858e+01  4.5010715597214826e+01  4.5013235697892732e+01  4.5017194207737212e+01  4.5014746375802183e+01  4.5019149837881585e+01  4.5016463715775615e+01  4.5021371155145850e+01  4.5018426433612760e+01  4.5023907427130069e+01  4.5020683239803496e+01  4.5026820484243274e+01  4.5023296204712047e+01  4.5030188886261804e+01  4.5026345512721882e+01  4.5034113779248244e+01  4.5029936290982562e+01  4.5038727255769551e+01  4.5034208619409021e+01  4.5044204510435975e+01  4.5039352515686794e+01  4.5050781865418742e+01  4.5045630951565322e+01  4.5058784137781664e+01  4.5053416300483640e+01  4.5068667308306367e+01  4.5063250148866658e+01  4.5081087000656325e+01  4.5075944589541542e+01  4.5097013456677274e+01  4.5092772937737919e+01  4.5117928731448394e+01  4.5115805466859427e+01  4.5146183589912610e+01  4.5148627323786897e+01  4.5185811915149309e+01  4.5199192049683141e+01  4.5243158295420365e+01  4.5275159044325655e+01  4.5333429266657589e+01  4.5459062992270319e+01  4.5480998247293748e+01  4.5938083648594294e+01  4.5645052028325416e+01  4.5751642100890379e+01  4.5785186177372395e+01  4.5011868348902389e+01  4.5015422666780537e+01  4.5010684561193621e+01  4.5013202556388229e+01  4.5017151101229345e+01  4.5014712563580332e+01  4.5019105867223864e+01  4.5016429571105895e+01  4.5021326761294368e+01  4.5018392361121613e+01  4.5023863138331585e+01  4.5020649711545907e+01  4.5026776916285392e+01  4.5023263756974188e+01  4.5030146738983277e+01  4.5026314739042483e+01  4.5034073826629900e+01  4.5029907827628591e+01  4.5038690328280325e+01  4.5034183127685679e+01  4.5044171470107550e+01  4.5039330652062745e+01  4.5050753569813295e+01  4.5045613335638954e+01  4.5058761395724510e+01  4.5053403470711437e+01  4.5068650825318848e+01  4.5063242515656853e+01  4.5081077316597849e+01  4.5075942379576603e+01  4.5097010876054320e+01  4.5092776133912750e+01  4.5117933248581821e+01  4.5115813741096360e+01  4.5146194808187055e+01  4.5148639956595915e+01  4.5185828944134521e+01  4.5199207718704443e+01  4.5243179659873427e+01  4.5275175974766128e+01  4.5333452562182678e+01  4.5459076113905809e+01  4.5481019723941905e+01  4.5938080499863403e+01  4.5645068856186825e+01  4.5751640832116529e+01  4.5785195884332339e+01  4.5011821116214350e+01  4.5015361232759247e+01  4.5010638567545911e+01  4.5013154520921773e+01  4.5017088635004328e+01  4.5014664265306934e+01  4.5019043073740448e+01  4.5016381662455558e+01  4.5021264491826727e+01  4.5018345611487902e+01  4.5023802397041862e+01  4.5020605008262841e+01  4.5026718860558901e+01  4.5023222099286961e+01  4.5030092671898764e+01  4.5026277222789183e+01  4.5034025177440817e+01  4.5029875621656501e+01  4.5038648621709847e+01  4.5034157436457740e+01  4.5044138277338888e+01  4.5039312666587989e+01  4.5050730445085108e+01  4.5045604168443894e+01  4.5058749792790444e+01  4.5053404078486302e+01  4.5068651997402142e+01  4.5063253609575561e+01  4.5081092200106234e+01  4.5075964322196995e+01  4.5097039961116252e+01  4.5092808827602980e+01  4.5117976438757822e+01  4.5115856500816719e+01  4.5146251268906674e+01  4.5148691356015014e+01  4.5185896913467772e+01  4.5199265235324994e+01  4.5243256259514304e+01  4.5275236079023585e+01  4.5333533197498120e+01  4.5459129614013477e+01  4.5481097342254763e+01  4.5938105458661951e+01  4.5645137346683555e+01  4.5751663837922166e+01  4.5785248773744208e+01  4.5009585924958905e+01  4.5010576931484785e+01  4.5013748119997160e+01  4.5009526230578984e+01  4.5011758048251025e+01  4.5015279210046593e+01  4.5013090667880036e+01  4.5017005609143389e+01  4.5014600425928997e+01  4.5018960087809106e+01  4.5016318800250581e+01  4.5021182803044432e+01  4.5018284862632932e+01  4.5023723487826643e+01  4.5020547684086587e+01  4.5026644440961881e+01  4.5023169678074645e+01  4.5030024669799452e+01  4.5026231329974237e+01  4.5033965713243120e+01  4.5029837996553013e+01  4.5038599963344922e+01  4.5034129877415047e+01  4.5044102771624516e+01  4.5039296960159525e+01  4.5050710423377076e+01  4.5045601992197064e+01  4.5058747447603672e+01  4.5053416886150870e+01  4.5068669231627908e+01  4.5063282490985905e+01  4.5081130450113982e+01  4.5076009849988743e+01  4.5097099998256368e+01  4.5092870880571617e+01  4.5118058151648903e+01  4.5115934068931622e+01  4.5146353428025954e+01  4.5148782302726111e+01  4.5186016882716885e+01  4.5199365783753393e+01  4.5243389697114345e+01  4.5275340839584899e+01  4.5333673183998641e+01  4.5459225022056728e+01  4.5481233298240056e+01  4.5938159556712002e+01  4.5645259640990595e+01  4.5751712051085107e+01  4.5785346651963827e+01  4.5010498674279745e+01  4.5013646330651760e+01  4.5009450425656183e+01  4.5012286718786164e+01  4.5011678001547551e+01  4.5015175113241902e+01  4.5013009675840564e+01  4.5016900307440622e+01  4.5014519534847835e+01  4.5018854947606833e+01  4.5016239278790103e+01  4.5021079479866565e+01  4.5018208215092159e+01  4.5023623944039585e+01  4.5020475655990559e+01  4.5026550953461474e+01  4.5023104249302158e+01  4.5029939821754354e+01  4.5026174694382270e+01  4.5033892365666361e+01  4.5029792518036913e+01  4.5038541199796640e+01  4.5034098023347610e+01  4.5044061810763942e+01  4.5039281203453370e+01  4.5050690493698440e+01  4.5045604685225804e+01  4.5058751621717178e+01  4.5053440097326686e+01  4.5068700218083386e+01  4.5063327813585552e+01  4.5081190346111335e+01  4.5076078179770420e+01  4.5097190005817836e+01  4.5092962166016157e+01  4.5118178266900870e+01  4.5116047030007678e+01  4.5146502099372945e+01  4.5148914089763458e+01  4.5186190602085126e+01  4.5199511288320195e+01  4.5243582571522872e+01  4.5275492651938428e+01  4.5333875764447598e+01  4.5459364818649021e+01  4.5481431133378720e+01  4.5938244528410870e+01  4.5645439203562177e+01  4.5751787030135880e+01  4.5785492460611152e+01  4.5008515590076520e+01  4.5009357437617922e+01  4.5012165754364098e+01  4.5008426356638687e+01  4.5010402528192849e+01  4.5013521279501688e+01  4.5011579490542225e+01  4.5015047012255728e+01  4.5012909820136002e+01  4.5016770489673156e+01  4.5014419612003508e+01  4.5018725081485059e+01  4.501614085192112