<?xml version="1.0"?>
<VTKFile type="UnstructuredGrid"  version="0.1"  >
<UnstructuredGrid>
<Piece  NumberOfPoints="14521" NumberOfCells="75917">
<Points>
<DataArray  type="Float64"  NumberOfComponents="3"  format="ascii">1 1 0  1.1 1 0  1.1 1.1 0  1.1 1.1 0.1  1.1 1 0.1  1.2 1 0  1.2 1.1 0  1.2 1.1 0.1  1.3 1 0  1.3 1.1 0  1.3 1.1 0.1  1.4 1 0  1.4 1.1 0  1.4 1.1 0.1  1.5 1 0  1.5 1.1 0  1.5 1.1 0.1  1.6 1 0  1.6 1.1 0  1.6 1.1 0.1  1.7 1 0  1.7 1.1 0  1.7 1.1 0.1  1.8 1 0  1.8 1.1 0  1.8 1.1 0.1  1.9 1 0  1.9 1.1 0  1.9 1.1 0.1  2 1 0  2 1.1 0  2 1.1 0.1  2.1 1.1 0  2.1 1.1 0.1  1.2 1.2 0  1.2 1.2 0.1  1.1 1.2 0  1.3 1.2 0  1.3 1.2 0.1  1.4 1.2 0  1.4 1.2 0.1  1.5 1.2 0  1.5 1.2 0.1  1.6 1.2 0  1.6 1.2 0.1  1.7 1.2 0  1.7 1.2 0.1  1.8 1.2 0  1.8 1.2 0.1  1.9 1.2 0  1.9 1.2 0.1  2 1.2 0  2 1.2 0.1  2.1 1.2 0  2.1 1.2 0.1  2.2 1.1 0  2.2 1.2 0  2.2 1.2 0.1  2.3 1.1 0  2.3 1.2 0  2.3 1.2 0.1  2.4 1.1 0  2.4 1.2 0  2.4 1.2 0.1  2.5 1.1 0  2.5 1.2 0  2.5 1.2 0.1  2.6 1.1 0  2.6 1.2 0  2.6 1.2 0.1  2.7 1.1 0  2.7 1.2 0  2.7 1.2 0.1  1.2 1.3 0  1.2 1.3 0.1  1.3 1.3 0  1.3 1.3 0.1  1.4 1.3 0  1.4 1.3 0.1  1.5 1.3 0  1.5 1.3 0.1  1.6 1.3 0  1.6 1.3 0.1  1.7 1.3 0  1.7 1.3 0.1  1.8 1.3 0  1.8 1.3 0.1  1.9 1.3 0  1.9 1.3 0.1  2 1.3 0  2 1.3 0.1  2.1 1.3 0  2.1 1.3 0.1  2.2 1.3 0  2.2 1.3 0.1  2.3 1.3 0  2.3 1.3 0.1  2.4 1.3 0  2.4 1.3 0.1  2.5 1.3 0  2.5 1.3 0.1  2.6 1.3 0  2.6 1.3 0.1  2.7 1.3 0  2.7 1.3 0.1  1.3 1.4 0  1.3 1.4 0.1  1.4 1.4 0  1.4 1.4 0.1  1.5 1.4 0  1.5 1.4 0.1  1.6 1.4 0  1.6 1.4 0.1  1.7 1.4 0  1.7 1.4 0.1  1.8 1.4 0  1.8 1.4 0.1  1.9 1.4 0  1.9 1.4 0.1  2 1.4 0  2 1.4 0.1  2.1 1.4 0  2.1 1.4 0.1  2.2 1.4 0  2.2 1.4 0.1  2.3 1.4 0  2.3 1.4 0.1  2.4 1.4 0  2.4 1.4 0.1  2.5 1.4 0  2.5 1.4 0.1  2.6 1.4 0  2.6 1.4 0.1  2.7 1.4 0  2.7 1.4 0.1  2.8 1.4 0.1  1.4 1.5 0  1.4 1.5 0.1  1.3 1.5 0  1.5 1.5 0  1.5 1.5 0.1  1.6 1.5 0  1.6 1.5 0.1  1.7 1.5 0  1.7 1.5 0.1  1.8 1.5 0  1.8 1.5 0.1  1.9 1.5 0  1.9 1.5 0.1  2 1.5 0  2 1.5 0.1  2.1 1.5 0  2.1 1.5 0.1  2.2 1.5 0  2.2 1.5 0.1  2.3 1.5 0  2.3 1.5 0.1  2.4 1.5 0  2.4 1.5 0.1  2.5 1.5 0  2.5 1.5 0.1  2.6 1.5 0  2.6 1.5 0.1  2.7 1.5 0  2.7 1.5 0.1  2.8 1.5 0.1  1.4 1.6 0  1.4 1.6 0.1  1.5 1.6 0  1.5 1.6 0.1  1.6 1.6 0  1.6 1.6 0.1  1.7 1.6 0  1.7 1.6 0.1  1.8 1.6 0  1.8 1.6 0.1  1.9 1.6 0  1.9 1.6 0.1  2 1.6 0  2 1.6 0.1  2.1 1.6 0  2.1 1.6 0.1  2.2 1.6 0  2.2 1.6 0.1  2.3 1.6 0  2.3 1.6 0.1  2.4 1.6 0  2.4 1.6 0.1  2.5 1.6 0  2.5 1.6 0.1  2.6 1.6 0  2.6 1.6 0.1  2.7 1.6 0  2.7 1.6 0.1  2.8 1.6 0.1  2.8 1.6 0  1.5 1.7 0  1.5 1.7 0.1  1.4 1.7 0  1.4 1.7 0.1  1.6 1.7 0  1.6 1.7 0.1  1.7 1.7 0  1.7 1.7 0.1  1.8 1.7 0  1.8 1.7 0.1  1.9 1.7 0  1.9 1.7 0.1  2 1.7 0  2 1.7 0.1  2.1 1.7 0  2.1 1.7 0.1  2.2 1.7 0  2.2 1.7 0.1  2.3 1.7 0  2.3 1.7 0.1  2.4 1.7 0  2.4 1.7 0.1  2.5 1.7 0  2.5 1.7 0.1  2.6 1.7 0  2.6 1.7 0.1  2.7 1.7 0  2.7 1.7 0.1  2.8 1.7 0  2.8 1.7 0.1  1.5 1.8 0  1.5 1.8 0.1  1.4 1.8 0  1.4 1.8 0.1  1.6 1.8 0  1.6 1.8 0.1  1.7 1.8 0  1.7 1.8 0.1  1.8 1.8 0  1.8 1.8 0.1  1.9 1.8 0  1.9 1.8 0.1  2 1.8 0  2 1.8 0.1  2.1 1.8 0  2.1 1.8 0.1  2.2 1.8 0  2.2 1.8 0.1  2.3 1.8 0  2.3 1.8 0.1  2.4 1.8 0  2.4 1.8 0.1  2.5 1.8 0  2.5 1.8 0.1  2.6 1.8 0  2.6 1.8 0.1  2.7 1.8 0  2.7 1.8 0.1  2.8 1.8 0  2.8 1.8 0.1  1.5 1.9 0  1.5 1.9 0.1  1.4 1.9 0  1.6 1.9 0  1.6 1.9 0.1  1.7 1.9 0  1.7 1.9 0.1  1.8 1.9 0  1.8 1.9 0.1  1.9 1.9 0  1.9 1.9 0.1  2 1.9 0  2 1.9 0.1  2.1 1.9 0  2.1 1.9 0.1  2.2 1.9 0  2.2 1.9 0.1  2.3 1.9 0  2.3 1.9 0.1  2.4 1.9 0  2.4 1.9 0.1  2.5 1.9 0  2.5 1.9 0.1  2.6 1.9 0  2.6 1.9 0.1  2.7 1.9 0  2.7 1.9 0.1  2.8 1.9 0  2.8 1.9 0.1  1.5 2 0  1.5 2 0.1  1.4 2 0  1.6 2 0  1.6 2 0.1  1.7 2 0  1.7 2 0.1  1.8 2 0  1.8 2 0.1  1.9 2 0  1.9 2 0.1  2 2 0  2 2 0.1  2.1 2 0  2.1 2 0.1  2.2 2 0  2.2 2 0.1  2.3 2 0  2.3 2 0.1  2.4 2 0  2.4 2 0.1  2.5 2 0  2.5 2 0.1  2.6 2 0  2.6 2 0.1  2.7 2 0  2.7 2 0.1  2.8 2 0  2.8 2 0.1  2.9 2 0.1  1.5 2.1 0  1.5 2.1 0.1  1.6 2.1 0  1.6 2.1 0.1  1.7 2.1 0  1.7 2.1 0.1  1.8 2.1 0  1.8 2.1 0.1  1.9 2.1 0  1.9 2.1 0.1  2 2.1 0  2 2.1 0.1  2.1 2.1 0  2.1 2.1 0.1  2.2 2.1 0  2.2 2.1 0.1  2.3 2.1 0  2.3 2.1 0.1  2.4 2.1 0  2.4 2.1 0.1  2.5 2.1 0  2.5 2.1 0.1  2.6 2.1 0  2.6 2.1 0.1  2.7 2.1 0  2.7 2.1 0.1  2.8 2.1 0  2.8 2.1 0.1  2.9 2.1 0.1  1.6 2.2 0  1.6 2.2 0.1  1.5 2.2 0  1.5 2.2 0.1  1.7 2.2 0  1.7 2.2 0.1  1.8 2.2 0  1.8 2.2 0.1  1.9 2.2 0  1.9 2.2 0.1  2 2.2 0  2 2.2 0.1  2.1 2.2 0  2.1 2.2 0.1  2.2 2.2 0  2.2 2.2 0.1  2.3 2.2 0  2.3 2.2 0.1  2.4 2.2 0  2.4 2.2 0.1  2.5 2.2 0  2.5 2.2 0.1  2.6 2.2 0  2.6 2.2 0.1  2.7 2.2 0  2.7 2.2 0.1  2.8 2.2 0  2.8 2.2 0.1  2.9 2.2 0.1  1.6 2.3 0  1.6 2.3 0.1  1.5 2.3 0  1.5 2.3 0.1  1.7 2.3 0  1.7 2.3 0.1  1.8 2.3 0  1.8 2.3 0.1  1.9 2.3 0  1.9 2.3 0.1  2 2.3 0  2 2.3 0.1  2.1 2.3 0  2.1 2.3 0.1  2.2 2.3 0  2.2 2.3 0.1  2.3 2.3 0  2.3 2.3 0.1  2.4 2.3 0  2.4 2.3 0.1  2.5 2.3 0  2.5 2.3 0.1  2.6 2.3 0  2.6 2.3 0.1  2.7 2.3 0  2.7 2.3 0.1  2.8 2.3 0  2.8 2.3 0.1  2.9 2.3 0.1  1.6 2.4 0  1.6 2.4 0.1  1.5 2.4 0  1.7 2.4 0  1.7 2.4 0.1  1.8 2.4 0  1.8 2.4 0.1  1.9 2.4 0  1.9 2.4 0.1  2 2.4 0  2 2.4 0.1  2.1 2.4 0  2.1 2.4 0.1  2.2 2.4 0  2.2 2.4 0.1  2.3 2.4 0  2.3 2.4 0.1  2.4 2.4 0  2.4 2.4 0.1  2.5 2.4 0  2.5 2.4 0.1  2.6 2.4 0  2.6 2.4 0.1  2.7 2.4 0  2.7 2.4 0.1  2.8 2.4 0  2.8 2.4 0.1  2.9 2.4 0.1  1.6 2.5 0  1.6 2.5 0.1  1.7 2.5 0  1.7 2.5 0.1  1.8 2.5 0  1.8 2.5 0.1  1.9 2.5 0  1.9 2.5 0.1  2 2.5 0  2 2.5 0.1  2.1 2.5 0  2.1 2.5 0.1  2.2 2.5 0  2.2 2.5 0.1  2.3 2.5 0  2.3 2.5 0.1  2.4 2.5 0  2.4 2.5 0.1  2.5 2.5 0  2.5 2.5 0.1  2.6 2.5 0  2.6 2.5 0.1  2.7 2.5 0  2.7 2.5 0.1  2.8 2.5 0.1  1.7 2.6 0  1.7 2.6 0.1  1.8 2.6 0  1.8 2.6 0.1  1.9 2.6 0  1.9 2.6 0.1  2 2.6 0  2 2.6 0.1  2.1 2.6 0  2.1 2.6 0.1  2.2 2.6 0  2.2 2.6 0.1  2.3 2.6 0  2.3 2.6 0.1  2.4 2.6 0  2.4 2.6 0.1  2.5 2.6 0  2.5 2.6 0.1  2.6 2.6 0  2.6 2.6 0.1  2.7 2.6 0  2.7 2.6 0.1  2.8 2.6 0.1  1.8 2.7 0  1.8 2.7 0.1  1.7 2.7 0  1.9 2.7 0  1.9 2.7 0.1  2 2.7 0  2 2.7 0.1  2.1 2.7 0  2.1 2.7 0.1  2.2 2.7 0  2.2 2.7 0.1  2.3 2.7 0  2.3 2.7 0.1  2.4 2.7 0  2.4 2.7 0.1  2.5 2.7 0  2.5 2.7 0.1  2.6 2.7 0  2.6 2.7 0.1  2.7 2.7 0  2.7 2.7 0.1  2.8 2.7 0.1  1.8 2.8 0  1.8 2.8 0.1  1.9 2.8 0  1.9 2.8 0.1  2 2.8 0  2 2.8 0.1  2.1 2.8 0  2.1 2.8 0.1  2.2 2.8 0  2.2 2.8 0.1  2.3 2.8 0  2.3 2.8 0.1  2.4 2.8 0  2.4 2.8 0.1  2.5 2.8 0  2.5 2.8 0.1  2.6 2.8 0  2.6 2.8 0.1  2.7 2.8 0  2.7 2.8 0.1  2.8 2.8 0.1  1.9 2.9 0  1.9 2.9 0.1  1.8 2.9 0  1.8 2.9 0.1  2 2.9 0  2 2.9 0.1  2.1 2.9 0  2.1 2.9 0.1  2.2 2.9 0  2.2 2.9 0.1  2.3 2.9 0  2.3 2.9 0.1  2.4 2.9 0  2.4 2.9 0.1  2.5 2.9 0  2.5 2.9 0.1  2.6 2.9 0  2.6 2.9 0.1  2.7 2.9 0.1  2.8 2.9 0.1  1.9 3 0  1.9 3 0.1  2 3 0  2 3 0.1  2.1 3 0  2.1 3 0.1  2.2 3 0  2.2 3 0.1  2.3 3 0  2.3 3 0.1  2.4 3 0  2.4 3 0.1  2.5 3 0  2.5 3 0.1  2.6 3 0  2.6 3 0.1  2.7 3 0.1  2 3.1 0  2 3.1 0.1  1.9 3.1 0  1.9 3.1 0.1  2.1 3.1 0  2.1 3.1 0.1  2.2 3.1 0  2.2 3.1 0.1  2.3 3.1 0  2.3 3.1 0.1  2.4 3.1 0  2.4 3.1 0.1  2.5 3.1 0  2.5 3.1 0.1  2.6 3.1 0.1  2 3.2 0  2 3.2 0.1  2.1 3.2 0  2.1 3.2 0.1  2.2 3.2 0  2.2 3.2 0.1  2.3 3.2 0.1  2.4 3.2 0.1  2.5 3.2 0.1  2.6 3.2 0.1  2.1 3.3 0.1  2 3.3 0.1  2.2 3.3 0.1  1.2 1.2 0.2  1.3 1.2 0.2  1.4 1.2 0.2  1.5 1.2 0.2  1.6 1.2 0.2  1.7 1.2 0.2  1.8 1.2 0.2  1.9 1.2 0.2  2 1.2 0.2  2.1 1.2 0.2  2.2 1.2 0.2  1.3 1.3 0.2  1.2 1.3 0.2  1.4 1.3 0.2  1.5 1.3 0.2  1.6 1.3 0.2  1.7 1.3 0.2  1.8 1.3 0.2  1.9 1.3 0.2  2 1.3 0.2  2.1 1.3 0.2  2.2 1.3 0.2  2.3 1.3 0.2  2.3 1.2 0.2  2.4 1.3 0.2  2.5 1.3 0.2  2.6 1.3 0.2  2.7 1.3 0.2  2.8 1.3 0.2  1.3 1.4 0.2  1.4 1.4 0.2  1.5 1.4 0.2  1.6 1.4 0.2  1.7 1.4 0.2  1.8 1.4 0.2  1.9 1.4 0.2  2 1.4 0.2  2.1 1.4 0.2  2.2 1.4 0.2  2.3 1.4 0.2  2.4 1.4 0.2  2.5 1.4 0.2  2.6 1.4 0.2  2.7 1.4 0.2  2.8 1.4 0.2  1.4 1.5 0.2  1.5 1.5 0.2  1.6 1.5 0.2  1.7 1.5 0.2  1.8 1.5 0.2  1.9 1.5 0.2  2 1.5 0.2  2.1 1.5 0.2  2.2 1.5 0.2  2.3 1.5 0.2  2.4 1.5 0.2  2.5 1.5 0.2  2.6 1.5 0.2  2.7 1.5 0.2  2.8 1.5 0.2  1.5 1.6 0.2  1.4 1.6 0.2  1.6 1.6 0.2  1.7 1.6 0.2  1.8 1.6 0.2  1.9 1.6 0.2  2 1.6 0.2  2.1 1.6 0.2  2.2 1.6 0.2  2.3 1.6 0.2  2.4 1.6 0.2  2.5 1.6 0.2  2.6 1.6 0.2  2.7 1.6 0.2  2.8 1.6 0.2  2.9 1.6 0.2  1.5 1.7 0.2  1.4 1.7 0.2  1.6 1.7 0.2  1.7 1.7 0.2  1.8 1.7 0.2  1.9 1.7 0.2  2 1.7 0.2  2.1 1.7 0.2  2.2 1.7 0.2  2.3 1.7 0.2  2.4 1.7 0.2  2.5 1.7 0.2  2.6 1.7 0.2  2.7 1.7 0.2  2.8 1.7 0.2  2.9 1.7 0.2  1.5 1.8 0.2  1.6 1.8 0.2  1.7 1.8 0.2  1.8 1.8 0.2  1.9 1.8 0.2  2 1.8 0.2  2.1 1.8 0.2  2.2 1.8 0.2  2.3 1.8 0.2  2.4 1.8 0.2  2.5 1.8 0.2  2.6 1.8 0.2  2.7 1.8 0.2  2.8 1.8 0.2  2.9 1.8 0.2  1.5 1.9 0.2  1.6 1.9 0.2  1.7 1.9 0.2  1.8 1.9 0.2  1.9 1.9 0.2  2 1.9 0.2  2.1 1.9 0.2  2.2 1.9 0.2  2.3 1.9 0.2  2.4 1.9 0.2  2.5 1.9 0.2  2.6 1.9 0.2  2.7 1.9 0.2  2.8 1.9 0.2  2.9 1.9 0.2  1.6 2 0.2  1.5 2 0.2  1.7 2 0.2  1.8 2 0.2  1.9 2 0.2  2 2 0.2  2.1 2 0.2  2.2 2 0.2  2.3 2 0.2  2.4 2 0.2  2.5 2 0.2  2.6 2 0.2  2.7 2 0.2  2.8 2 0.2  2.9 2 0.2  1.6 2.1 0.2  1.5 2.1 0.2  1.7 2.1 0.2  1.8 2.1 0.2  1.9 2.1 0.2  2 2.1 0.2  2.1 2.1 0.2  2.2 2.1 0.2  2.3 2.1 0.2  2.4 2.1 0.2  2.5 2.1 0.2  2.6 2.1 0.2  2.7 2.1 0.2  2.8 2.1 0.2  2.9 2.1 0.2  1.6 2.2 0.2  1.5 2.2 0.2  1.7 2.2 0.2  1.8 2.2 0.2  1.9 2.2 0.2  2 2.2 0.2  2.1 2.2 0.2  2.2 2.2 0.2  2.3 2.2 0.2  2.4 2.2 0.2  2.5 2.2 0.2  2.6 2.2 0.2  2.7 2.2 0.2  2.8 2.2 0.2  2.9 2.2 0.2  1.6 2.3 0.2  1.7 2.3 0.2  1.8 2.3 0.2  1.9 2.3 0.2  2 2.3 0.2  2.1 2.3 0.2  2.2 2.3 0.2  2.3 2.3 0.2  2.4 2.3 0.2  2.5 2.3 0.2  2.6 2.3 0.2  2.7 2.3 0.2  2.8 2.3 0.2  2.9 2.3 0.2  1.6 2.4 0.2  1.7 2.4 0.2  1.8 2.4 0.2  1.9 2.4 0.2  2 2.4 0.2  2.1 2.4 0.2  2.2 2.4 0.2  2.3 2.4 0.2  2.4 2.4 0.2  2.5 2.4 0.2  2.6 2.4 0.2  2.7 2.4 0.2  2.8 2.4 0.2  2.9 2.4 0.2  1.7 2.5 0.2  1.8 2.5 0.2  1.9 2.5 0.2  2 2.5 0.2  2.1 2.5 0.2  2.2 2.5 0.2  2.3 2.5 0.2  2.4 2.5 0.2  2.5 2.5 0.2  2.6 2.5 0.2  2.7 2.5 0.2  2.8 2.5 0.2  2.9 2.5 0.2  1.7 2.6 0.2  1.8 2.6 0.2  1.9 2.6 0.2  2 2.6 0.2  2.1 2.6 0.2  2.2 2.6 0.2  2.3 2.6 0.2  2.4 2.6 0.2  2.5 2.6 0.2  2.6 2.6 0.2  2.7 2.6 0.2  2.8 2.6 0.2  2.9 2.6 0.2  1.8 2.7 0.2  1.9 2.7 0.2  2 2.7 0.2  2.1 2.7 0.2  2.2 2.7 0.2  2.3 2.7 0.2  2.4 2.7 0.2  2.5 2.7 0.2  2.6 2.7 0.2  2.7 2.7 0.2  2.8 2.7 0.2  2.9 
[...]
<PointData  Scalars="p_O2"> 
<DataArray  type="Float64"  Name="p_O2"  format="ascii">8.7731991029284416e+01  8.8971507882491338e+01  8.8681951260504903e+01  8.6423538738627528e+01  8.6771534518419685e+01  9.0049615459682073e+01  8.9765210604782055e+01  8.7716417677882347e+01  9.0993260941157871e+01  9.0716423106469605e+01  8.8853150425188929e+01  9.1823756524015550e+01  9.1556233129622356e+01  8.9857790272168614e+01  9.2558232507189956e+01  9.2301221502226070e+01  9.0749754752257815e+01  9.3210635105134273e+01  9.2964893274176291e+01  9.1544922977068467e+01  9.3792436803325671e+01  9.3558374004940831e+01  9.2256418322099918e+01  9.4313157364377275e+01  9.4090915726491986e+01  9.2895182692253982e+01  9.4780755330682808e+01  9.4570274161446889e+01  9.3470408096902034e+01  9.5201928042582011e+01  9.5002996033034634e+01  9.3989867555667402e+01  9.5394641819616680e+01  9.4460173080776926e+01  8.9516392961419641e+01  8.7417291418638527e+01  8.8430514531331411e+01  9.0472528333125808e+01  8.8559905366003790e+01  9.1319016593163241e+01  8.9572540029669810e+01  9.2071969111858223e+01  9.0474049389165955e+01  9.2744499400176025e+01  9.1279842181570729e+01  9.3347413404287153e+01  9.2002657537744170e+01  9.3889707058192997e+01  9.2653129256263171e+01  9.4378934340566730e+01  9.3240206454303319e+01  9.4821485680562105e+01  9.3771473832344867e+01  9.5222802594224262e+01  9.4253399941241781e+01  9.5749961017209372e+01  9.5587545839789684e+01  9.4691532596273177e+01  9.6073031758250352e+01  9.5919728982616746e+01  9.5090654710076194e+01  9.6367373207720107e+01  9.6222825739806311e+01  9.5454909953842090e+01  9.6636036899306220e+01  9.6499857148848946e+01  9.5787905096911246e+01  9.6881681586754183e+01  9.6753463020378362e+01  9.6092794100442390e+01  9.7106635103115920e+01  9.6985961042286391e+01  9.6372347816715035e+01  8.9299259059984607e+01  8.7156218627900188e+01  9.0258345904929101e+01  8.8302353316888812e+01  9.1109468912994998e+01  8.9320534513134547e+01  9.1868347656050801e+01  9.0229145909659223e+01  9.2547757640986504e+01  9.1043190251623074e+01  9.3158219767554513e+01  9.1775064078031875e+01  9.3708494151259828e+01  9.2435117590319720e+01  9.4205942939749534e+01  9.3032069073700725e+01  9.4656802937861258e+01  9.3573318256789605e+01  9.5066394506802979e+01  9.4065187720207888e+01  9.5439284381405912e+01  9.4513111917688008e+01  9.5779414456764584e+01  9.4921787279846669e+01  9.6090204973761715e+01  9.5295292886749067e+01  9.6374638132110022e+01  9.5637188538887244e+01  9.6635326550511280e+01  9.5950595254824208e+01  9.6874569871222590e+01  9.6238261967674816e+01  9.0070938557683121e+01  8.8076973115695537e+01  9.0925139012091492e+01  8.9098834821193222e+01  9.1688337110918852e+01  9.0012621826542045e+01  9.2373022606625710e+01  9.0832993671077020e+01  9.2989468319489191e+01  9.1572048776738342e+01  9.3546223297327231e+01  9.2239883574557339e+01  9.4050473206197765e+01  9.2845004055463505e+01  9.4508309564373505e+01  9.3394635092789201e+01  9.4924934858742333e+01  9.3894957330836959e+01  9.5304821555643969e+01  9.4351291648182809e+01  9.5651837275083352e+01  9.4768244935816924e+01  9.5969344684724817e+01  9.5149826821909471e+01  9.6260282193237245e+01  9.5499544238716524e+01  9.6527229870003339e+01  9.5820478867084091e+01  9.6772463864111273e+01  9.6115351209663260e+01  9.6386574155528919e+01  9.0763793002187256e+01  8.8904761599775000e+01  8.9907679170950132e+01  9.1530061935007723e+01  8.9822227236230120e+01  9.2218738060902325e+01  9.0647385314600569e+01  9.2839882400447323e+01  9.1392079753115311e+01  9.3401859243738812e+01  9.2066184876400285e+01  9.3911696002881811e+01  9.2678016344648881e+01  9.4375350788935279e+01  9.3234638518905314e+01  9.4797915254505867e+01  9.3742098631694830e+01  9.5183771042500084e+01  9.4205608189174171e+01  9.5536712355394215e+01  9.4629685628806527e+01  9.5860043340873048e+01  9.5018270038395869e+01  9.6156656467164879e+01  9.5374812940214753e+01  9.6429096350768702e+01  9.5702353225468258e+01  9.6679612328723351e+01  9.6003579009299230e+01  9.6280879260705618e+01  9.0623427494863634e+01  8.8735911274756901e+01  9.1391812810619456e+01  8.9655911094767887e+01  9.2083462897020581e+01  9.0484635751388581e+01  9.2708260785842612e+01  9.1233715293298104e+01  9.3274411983675890e+01  9.1912833176456672e+01  9.3788804950689254e+01  9.2530137965825958e+01  9.4257278208388996e+01  9.3092550159930170e+01  9.4684822007950984e+01  9.3605994962922409e+01  9.5075733186314466e+01  9.4075581786705726e+01  9.5433735946294476e+01  9.4505744765911032e+01  9.5762077405555203e+01  9.4900354277833586e+01  9.6063604190148112e+01  9.5262806586817632e+01  9.6340824590443091e+01  9.5596096776727734e+01  9.6595959616694131e+01  9.5902878779917586e+01  9.6185515373796903e+01  9.6830985443757271e+01  9.1272057436960679e+01  8.9511834332954948e+01  9.0502271495410412e+01  8.8590158556055528e+01  9.1965887295677831e+01  9.0343172759475735e+01  9.2593496603161029e+01  9.1095626647975735e+01  9.3162956597696606e+01  9.1778718057449424e+01  9.3681035970373216e+01  9.2400451537984750e+01  9.4153468264877006e+01  9.2967621315199167e+01  9.4585153126932326e+01  9.3486043574519528e+01  9.4980310283325537e+01  9.3960734917704571e+01  9.5342599168311239e+01  9.4396051497148363e+01  9.5675213182180414e+01  9.4795798991864743e+01  9.5980954958237035e+01  9.5163320660690886e+01  9.6262297223282104e+01  9.5501568720683224e+01  9.6521432634127621e+01  9.5813162911508059e+01  9.6760315102642110e+01  9.6100439148830034e+01  9.1169443747044951e+01  8.9388373869392211e+01  9.0398781124872244e+01  8.8465650297693202e+01  9.1864841626595364e+01  9.0221592123439422e+01  9.2494589700462214e+01  9.0976612962557851e+01  9.3066647420719761e+01  9.1662824074326437e+01  9.3587682057376995e+01  9.2288108059641942e+01  9.4063336812492906e+01  9.2859150484307392e+01  9.4498432145101958e+01  9.3381672264009239e+01  9.4897119370851613e+01  9.3860607670982034e+01  9.5262999604434583e+01  9.4300242654013942e+01  9.5599217156342561e+01  9.4704323780480095e+01  9.5908533843683557e+01  9.5076145145224089e+01  9.6193388873357634e+01  9.5418618575882604e+01  9.6455947724222057e+01  9.5734331051929459e+01  9.6698142573041451e+01  9.6025592278141829e+01  9.1082798229876161e+01  8.9284120717230536e+01  9.0311630278218786e+01  9.1779300245550061e+01  9.0118662287115569e+01  9.2410654106461607e+01  9.0875610310783003e+01  9.2984727741624141e+01  9.1564242459822680e+01  9.3508104131655131e+01  9.2192339986388603e+01  9.3986350331331550e+01  9.2766496872428192e+01  9.4424219153622332e+01  9.3292352654229546e+01  9.4825802715389457e+01  9.3774770367857514e+01  9.5194651028047701e+01  9.4217974452996444e+01  9.5533864849527205e+01  9.4625659041824107e+01  9.5846169332836752e+01  9.5001074074669248e+01  9.6133973190279903e+01  9.5347094643946718e+01  9.6399416847437621e+01  9.5666277539528252e+01  9.6644412162008862e+01  9.5960907971879990e+01  9.1011121357261572e+01  8.9197874602744818e+01  9.0239699432795717e+01  9.1708381895639818e+01  9.0033324920322158e+01  9.2340921979141527e+01  9.0791696500077364e+01  9.2916536112967734e+01  9.1482178752866744e+01  9.3441738772900635e+01  9.2112470560474208e+01  9.3922034369974014e+01  9.2689090563782727e+01  9.4362119425703170e+01  9.3217610582256938e+01  9.4766036252483602e+01  9.3702833724670157e+01  9.5137291413721144e+01  9.4148932139136477e+01  9.5478948254299453e+01  9.4559554919145825e+01  9.5793700107634635e+01  9.4937913691991540e+01  9.6083928949699626e+01  9.5286851347366522e+01  9.6351753009572619e+01  9.5608897933078666e+01  9.6599065945592940e+01  9.5906316726534030e+01  9.6181142795208942e+01  9.0953581606520743e+01  8.9128636870292425e+01  9.1651348052964593e+01  8.9964692997543807e+01  9.2284745172977480e+01  9.0724093007549527e+01  9.2861510193291679e+01  9.1415957455713581e+01  9.3388103556596661e+01  9.2047920253580969e+01  9.3869979756657486e+01  9.2626440008507458e+01  9.4311790029736414e+01  9.3157034062959298e+01  9.4717536254793785e+01  9.3644456877172146e+01  9.5090689413936332e+01  9.4092837778530480e+01  9.5434281955237338e+01  9.4505788668740522e+01  9.5750980715839447e+01  9.4886489274652050e+01  9.6043145225670600e+01  9.5237755454360908e+01  9.6312874923724380e+01  9.5562094621617533e+01  9.6562047932549035e+01  9.5861751334289821e+01  9.6138745378569794e+01  9.1607600210537129e+01  8.9912047595510316e+01  9.0909509136629751e+01  8.9075602958424113e+01  9.2241595311249327e+01  9.0672165112989020e+01  9.2819188870583247e+01  9.1365024621362039e+01  9.3346800599818110e+01  9.1998211056483882e+01  9.3829847054704473e+01  9.2578137397942811e+01  9.4272944785885883e+01  9.3110279263481644e+01  9.4680064478397881e+01  9.3599353581908204e+01  9.5054649472514569e+01  9.4049456416733193e+01  9.5399708053001859e+01  9.4464170584984288e+01  9.5717886201584889e+01  9.4846650705619325e+01  9.6011525666557290e+01  9.5199691224857531e+01  9.6282710907169786e+01  9.5525781513817648e+01  9.6533307580691442e+01  9.5827151112411997e+01  9.6105807466895399e+01  9.1576676853186100e+01  8.9874834299119655e+01  9.0878389859410348e+01  8.9038155331650941e+01  9.2211063052589680e+01  9.0635421052776451e+01  9.2789213267797123e+01  9.1328949091559764e+01  9.3317518822161858e+01  9.1962969218388878e+01  9.3801369666158379e+01  9.2543862413807332e+01  9.4245357883296279e+01  9.3077074863993360e+01  9.4653432033819115e+01  9.3567296878990575e+01  9.5029015750869121e+01  9.4018600806900920e+01  9.5375100006206367e+01  9.4434548626529164e+01  9.5694315766511195e+01  9.4818276880727979e+01  9.5988991916916419e+01  9.5172564527453446e+01  9.6261202029563933e+01  9.5499887825976401e+01  9.6512802660314705e+01  9.5802465351514655e+01  9.6082295498417110e+01  9.1558250634368221e+01  8.9852659848202450e+01  9.0859860416993570e+01  9.2192857055135306e+01  9.0613510802874302e+01  9.2771327090493898e+01  9.1307422935634619e+01  9.3300035315047595e+01  9.1941926910058370e+01  9.3784355914524397e+01  9.2523384746115383e+01  9.4228866418150830e+01  9.3057225122991284e+01  9.4637502176765238e+01  9.3548122457460053e+01  9.5013675015382333e+01  9.4000134888210340e+01  9.5360365497185512e+01  9.4416811866960913e+01  9.5680195532527534e+01  9.4801279034189321e+01  9.5975486222436587e+01  9.5156305975597434e+01  9.6248304531337666e+01  9.5484360992383500e+01  9.6500501472322043e+01  9.5787655983317507e+01  9.6068183813501037e+01  9.1552126135198250e+01  8.9845289464826152e+01  9.2186802998644282e+01  9.0606224924887798e+01  9.2765376647634653e+01  9.1300261492938048e+01  9.3294216115290808e+01  9.1934923167470359e+01  9.3778690357340253e+01  9.2516565679930139e+01  9.4223372065031697e+01  9.3050611889734981e+01  9.4632192188579879e+01  9.3541730919025412e+01  9.5008558611430090e+01  9.3993976162770309e+01  9.5355448413673642e+01  9.4410892881082148e+01  9.5675480468613628e+01  9.4795603058934006e+01  9.5970973262284460e+01  9.5150873132698138e+01  9.6243991533362760e+01  9.5479168723234423e+01  9.5782699476395962e+01  9.2192842910242078e+01  9.0613493764633290e+01  9.2771310780185004e+01  9.1307403292808644e+01  9.3300016591587109e+01  9.1941904362639974e+01  9.3784334503812133e+01  9.2523358964324871e+01  9.4228842017731083e+01  9.3057195743386274e+01  9.4637474454854853e+01  9.3548089080929799e+01  9.5013643608769300e+01  9.4000097076891350e+01  9.5360330008404446e+01  9.4416769142300666e+01  9.5680155527713580e+01  9.4801230875299765e+01  9.5975441233987183e+01  9.5156251819049984e+01  9.6248254055839240e+01  9.5484300231953384e+01  9.5787587972555798e+01  9.2789180818410813e+01  9.1328910010696873e+01  9.2211034922224627e+01  9.3317481558558001e+01  9.1962924344484549e+01  9.3801327041380844e+01  9.2543811088069504e+01  9.4245309293907113e+01  9.3077016360614465e+01  9.4653376817257481e+01  9.3567230399942517e+01  9.5028953179439995e+01  9.4018525475829236e+01  9.5375029283668923e+01  9.4434463485261617e+01  9.5694236025123914e+01  9.4818180885786674e+01  9.5988902217186933e+01  9.5172456547902897e+01  9.6261101360457062e+01  9.5499766644668242e+01  9.5802329668395075e+01  9.2819140622411140e+01  9.1364966512672083e+01  9.3346745162305751e+01  9.1998144297448590e+01  9.3829783610638799e+01  9.2578061003721814e+01  9.4272872432988990e+01  9.3110192147862520e+01  9.4679982223050601e+01  9.3599254548736312e+01  9.5054556222217713e+01  9.4049344150942503e+01  9.5399602610957459e+01  9.4464043646637450e+01  9.5717767262994812e+01  9.4846507524213649e+01  9.6011391814806615e+01  9.5199530095574545e+01  9.6282560614438637e+01  9.5525600598528115e+01  9.5826948443360763e+01  9.3388030494647225e+01  9.2047832270835144e+01  9.2861446655597447e+01  9.1415880932844630e+01  9.3869896085961656e+01  9.2626339259457168e+01  9.4311694551308108e+01  9.3156919104048683e+01  9.4717427645704575e+01  9.3644326115529381e+01  9.5090566216741053e+01  9.4092689460578228e+01  9.5434142571102342e+01  9.4505620870146174e+01  9.5750823397289892e+01  9.4886299891950159e+01  9.6042968071633808e+01  9.5237542199705445e+01  9.5561855021522604e+01  9.5861482733425959e+01  9.3441648817067417e+01  9.2112362233871465e+01  9.3921931262811484e+01  9.2688966411443175e+01  9.4362001674778085e+01  9.3217468807535738e+01  9.4765902208463316e+01  9.3702672341232201e+01  9.5137139254844811e+01  9.4148748955034023e+01  9.5478775977585229e+01  9.4559347523274326e+01  9.5793505516798078e+01  9.4937679441405422e+01  9.6083709649719808e+01  9.5286587359838620e+01  9.5608601081876017e+01  9.3986228774319358e+01  9.2766350505321242e+01  9.3507998192836709e+01  9.2192212413098559e+01  9.4424080199245779e+01  9.3292185350758132e+01  9.4825644390419896e+01  9.3774579752801131e+01  9.5194471149423052e+01  9.4217757898426484e+01  9.5533661008213883e+01  9.4625413648010195e+01  9.5845938878717149e+01  9.5000796653236421e+01  9.5346781705348164e+01  9.4063197988328866e+01  9.2858983326331952e+01  9.4498273272191696e+01  9.3381480979057258e+01  9.4896938159067119e+01  9.3860389502307555e+01  9.4299994542347676e+01  9.4704042337429598e+01  9.5075826631916712e+01  9.5418258883006786e+01  9.3485830114860661e+01  9.2967435022183253e+01  9.3960491164127660e+01  8.5446200035844626e+01  8.6752954740860957e+01  8.7914172370016686e+01  8.8950248029606698e+01  8.9878031412009136e+01  9.0711574702422269e+01  9.1462691245895599e+01  9.2141381219707512e+01  9.2756161687416181e+01  9.3314326399506527e+01  9.3822152946700228e+01  8.6453598591183734e+01  8.5142838180653271e+01  8.7621181682431768e+01  8.8665438462867030e+01  8.9602748103566995e+01  9.0446765109297445e+01  9.1208973116754635e+01  9.1899103525234935e+01  9.2525457677811417e+01  9.3095158806457903e+01  9.3614351830011472e+01  9.4088363752436251e+01  9.4285069759737524e+01  9.4521833815940070e+01  9.4918820124446697e+01  9.5282887751027715e+01  9.5617182166866172e+01  9.5924490949952627e+01  8.6191560687352336e+01  8.7363360391822610e+01  8.8413576815393952e+01  8.9358191451415806e+01  9.0210512883959808e+01  9.0981729896201827e+01  9.1681326904041612e+01  9.2317401559546070e+01  9.2896911530475364e+01  9.3425869065849099e+01  9.3909496413789370e+01  9.4352351419876399e+01  9.4758430096020078e+01  9.5131251195593563e+01  9.5473926595596566e+01  9.5789220418427306e+01  8.7137615067479587e+01  8.8192064413051767e+01  8.9142204110485039e+01  9.0001047485459395e+01  9.0779525346367748e+01  9.1486900793622937e+01  9.2131084630433037e+01  9.2718879049889352e+01  9.3256168695316561e+01  9.3748072488973122e+01  9.4199065765519322e+01  9.4613079625732809e+01  9.4993582607240938e+01  9.5343648494676813e+01  9.5666013196895818e+01  8.7998530624255466e+01  8.6941168619926501e+01  8.8952786521224894e+01  8.9816701533927031e+01  9.0600984818058393e+01  9.1314705237209651e+01  9.1965606203968150e+01  9.2560347790361519e+01  9.3104695620386963e+01  9.3603670238775877e+01  9.4061666711587236e+01  9.4482551510766967e+01  9.4869741869362969e+01  9.5226271475331856e+01  9.5554845456455681e+01  9.5857886945931810e+01  8.7830848527025864e+01  8.6771563884365463e+01  8.8788119846424621e+01  8.9655937456438480e+01  9.0444823098152668e+01  9.1163678257924630e+01  9.1820099466199807e+01  9.2420619876978577e+01  9.2970896976040876e+01  9.3475860369075392e+01  9.3939829605713115e+01  9.4366609230181339e+01  9.4759566339064207e+01  9.5121694580655486e+01  9.5455667582345811e+01  9.5763884115214736e+01  8.7687139993231384e+01  8.8646578797617479e+01  8.9517365016989729e+01  9.0309864362454391e+01  9.1032836600083414e+01  9.1693751888156797e+01  9.2299032498476265e+01  9.2854240025147291e+01  9.3364222244558718e+01  9.3833229751949403e+01  9.4265009693965823e+01  9.4662881971903190e+01  9.5029801915678192e+01  9.5368412458748395e+01  9.5681088150229570e+01  8.7565773877708310e+01  8.8526737310484833e+01  8.9399751999862929e+01  9.0195055903195126e+01  9.0921291010390732e+01  9.1585820977466142e+01  9.2194973377071364e+01  9.2754226852638453e+01  9.3268357509050745e+01  9.3741554801151480e+01  9.4177514353310968e+01  9.4579513169442436e+01  9.4950471294855063e+01  9.5293003007597989e+01  9.5609459906741989e+01  8.8427369450433901e+01  8.7465360102413825e+01  8.9302029969159122e+01  9.0099477119278120e+01  9.0828257168259000e+01  9.1495646163543924e+01  9.2107892885493726e+01  9.2670406207656924e+01  9.3187901316959127e+01  9.3664515168478147e+01  9.4103898697129665e+01  9.4509291318503458e+01  9.4883581840759049e+01  9.5229358900988714e+01  9.5548953328841776e+01  8.8347447393662506e+01  8.7384741700776715e+01  8.9223296676372470e+01  9.0022345042782106e+01  9.0753063257550892e+01  9.1422657559992999e+01  9.2037313348610297e+01  9.2602382863695112e+01  9.3122531415623769e+01  9.3601852615542896e+01  9.4043960198611842e+01  9.4452062038391489e+01  9.4829020515017930e+01  9.5177402391394239e+01  9.5499520625525875e+01  8.8286137887129868e+01  8.7322986311014660e+01  8.9162816351715080e+01  8.9963017449245925e+01  9.0695155027290795e+01  9.1366382268201349e+01  9.1982836027440086e+01  9.2549824856861065e+01  9.3071975326106028e+01  9.3553347155406300e+01  9.3997524806482787e+01  9.4407691174166132e+01  9.4786687577371595e+01  9.5137063236169269e+01  9.5461116682887109e+01  8.8242798214830103e+01  8.9120018831751807e+01  8.9920994380226929e+01  9.0654099039566248e+01  9.1326448782842490e+01  9.1944146225013853e+01  9.2512468933553862e+01  9.3036015860732064e+01  9.3518822446506078e+01  9.3964452080398118e+01  9.4376069592000661e+01  9.4756500997933671e+01  9.5108282712668554e+01  9.5433702689442569e+01  8.8216972415421907e+01  8.9094498231773400e+01  8.9895918720627762e+01  9.0629584654250721e+01  9.1302589958060778e+01  9.1921016878990798e+01  9.2490124485538914e+01  9.3014495183508387e+01  9.3498149817287768e+01  9.3944639067666898e+01  9.4357116834440532e+01  9.4738399847012218e+01  9.5091016724185494e+01  9.5417248958212483e+01  8.9086011666472842e+01  8.9887576296158315e+01  9.0621425162808464e+01  9.1294644879576879e+01  9.1913310922449440e+01  9.2482676197482306e+01  9.3007317586333386e+01  9.3491251049940658e+01  9.3938023008501474e+01  9.4350783688811077e+01  9.4732346692916039e+01  9.5085238008869240e+01  9.5411736943939601e+01  8.9094478355157662e+01  8.9895895808497329e+01  9.0629558357741416e+01  9.1302559893050613e+01  9.1920982622111026e+01  9.2490085571814660e+01  9.3014451102785969e+01  9.3498100012130379e+01  9.3944582931770313e+01  9.4357053711591391e+01  9.4738329031625312e+01  9.5090937463820154e+01  9.5417160456945581e+01  8.9920948794541303e+01  9.0654046704366962e+01  9.1326388930427257e+01  9.1944078009748736e+01  9.2512391425461715e+01  9.3035928039460572e+01  9.3518723195822602e+01  9.3964340185148458e+01  9.4375943735838263e+01  9.4756359763962323e+01  9.5108124587664321e+01  9.5433526070817322e+01  9.0695077168274253e+01  8.9962949668876803e+01  9.1366293182795189e+01  9.1982734450397047e+01  9.2549709394254208e+01  9.3071844447056208e+01  9.3553199182318551e+01  9.3997357910596065e+01  9.4407503371091593e+01  9.4786476727475176e+01  9.5136827048896563e