<?xml version="1.0"?>
<VTKFile type="UnstructuredGrid"  version="0.1"  >
<UnstructuredGrid>
<Piece  NumberOfPoints="14247" NumberOfCells="74455">
<Points>
<DataArray  type="Float64"  NumberOfComponents="3"  format="ascii">0 0 0  0.1 0 0  0.1 0.1 0  0.1 0.1 0.1  0.1 0 0.1  0 0 0.1  0 0.1 0  0 0.1 0.1  0.2 0 0  0.2 0.1 0  0.2 0.1 0.1  0.2 0 0.1  0.3 0 0  0.3 0.1 0  0.3 0.1 0.1  0.3 0 0.1  0.4 0 0  0.4 0.1 0  0.4 0.1 0.1  0.4 0 0.1  0.5 0 0  0.5 0.1 0  0.5 0.1 0.1  0.5 0 0.1  0.6 0 0  0.6 0.1 0  0.6 0.1 0.1  0.6 0 0.1  0.1 0.2 0  0.1 0.2 0.1  0 0.2 0  0 0.2 0.1  0.2 0.2 0  0.2 0.2 0.1  0.3 0.2 0  0.3 0.2 0.1  0.4 0.2 0  0.4 0.2 0.1  0.5 0.2 0  0.5 0.2 0.1  0.6 0.2 0  0.6 0.2 0.1  0.7 0.2 0.1  0.1 0.3 0  0.1 0.3 0.1  0 0.3 0  0 0.3 0.1  0.2 0.3 0  0.2 0.3 0.1  0.3 0.3 0  0.3 0.3 0.1  0.4 0.3 0  0.4 0.3 0.1  0.5 0.3 0  0.5 0.3 0.1  0.6 0.3 0  0.6 0.3 0.1  0.7 0.3 0.1  0.7 0.3 0  0.1 0.4 0  0.1 0.4 0.1  0 0.4 0  0 0.4 0.1  0.2 0.4 0  0.2 0.4 0.1  0.3 0.4 0  0.3 0.4 0.1  0.4 0.4 0  0.4 0.4 0.1  0.5 0.4 0  0.5 0.4 0.1  0.6 0.4 0  0.6 0.4 0.1  0.7 0.4 0  0.7 0.4 0.1  0.1 0.5 0  0.1 0.5 0.1  0 0.5 0  0 0.5 0.1  0.2 0.5 0  0.2 0.5 0.1  0.3 0.5 0  0.3 0.5 0.1  0.4 0.5 0  0.4 0.5 0.1  0.5 0.5 0  0.5 0.5 0.1  0.6 0.5 0  0.6 0.5 0.1  0.7 0.5 0  0.7 0.5 0.1  0.8 0.5 0.1  0.1 0.6 0  0.1 0.6 0.1  0 0.6 0  0 0.6 0.1  0.2 0.6 0  0.2 0.6 0.1  0.3 0.6 0  0.3 0.6 0.1  0.4 0.6 0  0.4 0.6 0.1  0.5 0.6 0  0.5 0.6 0.1  0.6 0.6 0  0.6 0.6 0.1  0.7 0.6 0  0.7 0.6 0.1  0.8 0.6 0.1  0.8 0.6 0  0.1 0.7 0  0.1 0.7 0.1  0 0.7 0  0 0.7 0.1  0.2 0.7 0  0.2 0.7 0.1  0.3 0.7 0  0.3 0.7 0.1  0.4 0.7 0  0.4 0.7 0.1  0.5 0.7 0  0.5 0.7 0.1  0.6 0.7 0  0.6 0.7 0.1  0.7 0.7 0  0.7 0.7 0.1  0.8 0.7 0  0.8 0.7 0.1  0.9 0.7 0  0.9 0.7 0.1  0.1 0.8 0  0.1 0.8 0.1  0 0.8 0  0 0.8 0.1  0.2 0.8 0  0.2 0.8 0.1  0.3 0.8 0  0.3 0.8 0.1  0.4 0.8 0  0.4 0.8 0.1  0.5 0.8 0  0.5 0.8 0.1  0.6 0.8 0  0.6 0.8 0.1  0.7 0.8 0  0.7 0.8 0.1  0.8 0.8 0  0.8 0.8 0.1  0.9 0.8 0  0.9 0.8 0.1  0.1 0.9 0  0.1 0.9 0.1  0 0.9 0  0 0.9 0.1  0.2 0.9 0  0.2 0.9 0.1  0.3 0.9 0  0.3 0.9 0.1  0.4 0.9 0  0.4 0.9 0.1  0.5 0.9 0  0.5 0.9 0.1  0.6 0.9 0  0.6 0.9 0.1  0.7 0.9 0  0.7 0.9 0.1  0.8 0.9 0  0.8 0.9 0.1  0.9 0.9 0  0.9 0.9 0.1  1 0.9 0.1  0.1 1 0  0.1 1 0.1  0 1 0  0 1 0.1  0.2 1 0  0.2 1 0.1  0.3 1 0  0.3 1 0.1  0.4 1 0  0.4 1 0.1  0.5 1 0  0.5 1 0.1  0.6 1 0  0.6 1 0.1  0.7 1 0  0.7 1 0.1  0.8 1 0  0.8 1 0.1  0.9 1 0  0.9 1 0.1  1 1 0.1  1 1 0  0.1 1.1 0  0.1 1.1 0.1  0 1.1 0  0 1.1 0.1  0.2 1.1 0  0.2 1.1 0.1  0.3 1.1 0  0.3 1.1 0.1  0.4 1.1 0  0.4 1.1 0.1  0.5 1.1 0  0.5 1.1 0.1  0.6 1.1 0  0.6 1.1 0.1  0.7 1.1 0  0.7 1.1 0.1  0.8 1.1 0  0.8 1.1 0.1  0.9 1.1 0  0.9 1.1 0.1  1 1.1 0  1 1.1 0.1  1.1 1.1 0  1.1 1.1 0.1  0.1 1.2 0  0.1 1.2 0.1  0 1.2 0  0 1.2 0.1  0.2 1.2 0  0.2 1.2 0.1  0.3 1.2 0  0.3 1.2 0.1  0.4 1.2 0  0.4 1.2 0.1  0.5 1.2 0  0.5 1.2 0.1  0.6 1.2 0  0.6 1.2 0.1  0.7 1.2 0  0.7 1.2 0.1  0.8 1.2 0  0.8 1.2 0.1  0.9 1.2 0  0.9 1.2 0.1  1 1.2 0  1 1.2 0.1  1.1 1.2 0  1.1 1.2 0.1  1.2 1.2 0.1  0.1 1.3 0  0.1 1.3 0.1  0 1.3 0  0 1.3 0.1  0.2 1.3 0  0.2 1.3 0.1  0.3 1.3 0  0.3 1.3 0.1  0.4 1.3 0  0.4 1.3 0.1  0.5 1.3 0  0.5 1.3 0.1  0.6 1.3 0  0.6 1.3 0.1  0.7 1.3 0  0.7 1.3 0.1  0.8 1.3 0  0.8 1.3 0.1  0.9 1.3 0  0.9 1.3 0.1  1 1.3 0  1 1.3 0.1  1.1 1.3 0  1.1 1.3 0.1  1.2 1.3 0.1  1.2 1.3 0  0.1 1.4 0  0.1 1.4 0.1  0 1.4 0  0 1.4 0.1  0.2 1.4 0  0.2 1.4 0.1  0.3 1.4 0  0.3 1.4 0.1  0.4 1.4 0  0.4 1.4 0.1  0.5 1.4 0  0.5 1.4 0.1  0.6 1.4 0  0.6 1.4 0.1  0.7 1.4 0  0.7 1.4 0.1  0.8 1.4 0  0.8 1.4 0.1  0.9 1.4 0  0.9 1.4 0.1  1 1.4 0  1 1.4 0.1  1.1 1.4 0  1.1 1.4 0.1  1.2 1.4 0  1.2 1.4 0.1  1.3 1.4 0  1.3 1.4 0.1  0.1 1.5 0  0.1 1.5 0.1  0 1.5 0  0 1.5 0.1  0.2 1.5 0  0.2 1.5 0.1  0.3 1.5 0  0.3 1.5 0.1  0.4 1.5 0  0.4 1.5 0.1  0.5 1.5 0  0.5 1.5 0.1  0.6 1.5 0  0.6 1.5 0.1  0.7 1.5 0  0.7 1.5 0.1  0.8 1.5 0  0.8 1.5 0.1  0.9 1.5 0  0.9 1.5 0.1  1 1.5 0  1 1.5 0.1  1.1 1.5 0  1.1 1.5 0.1  1.2 1.5 0  1.2 1.5 0.1  1.3 1.5 0  1.3 1.5 0.1  1.4 1.5 0.1  0.1 1.6 0  0.1 1.6 0.1  0 1.6 0  0 1.6 0.1  0.2 1.6 0  0.2 1.6 0.1  0.3 1.6 0  0.3 1.6 0.1  0.4 1.6 0  0.4 1.6 0.1  0.5 1.6 0  0.5 1.6 0.1  0.6 1.6 0  0.6 1.6 0.1  0.7 1.6 0  0.7 1.6 0.1  0.8 1.6 0  0.8 1.6 0.1  0.9 1.6 0  0.9 1.6 0.1  1 1.6 0  1 1.6 0.1  1.1 1.6 0  1.1 1.6 0.1  1.2 1.6 0  1.2 1.6 0.1  1.3 1.6 0  1.3 1.6 0.1  1.4 1.6 0.1  1.4 1.6 0  0.1 1.7 0  0.1 1.7 0.1  0 1.7 0  0 1.7 0.1  0.2 1.7 0  0.2 1.7 0.1  0.3 1.7 0  0.3 1.7 0.1  0.4 1.7 0  0.4 1.7 0.1  0.5 1.7 0  0.5 1.7 0.1  0.6 1.7 0  0.6 1.7 0.1  0.7 1.7 0  0.7 1.7 0.1  0.8 1.7 0  0.8 1.7 0.1  0.9 1.7 0  0.9 1.7 0.1  1 1.7 0  1 1.7 0.1  1.1 1.7 0  1.1 1.7 0.1  1.2 1.7 0  1.2 1.7 0.1  1.3 1.7 0  1.3 1.7 0.1  1.4 1.7 0  1.4 1.7 0.1  0.1 1.8 0  0.1 1.8 0.1  0 1.8 0  0 1.8 0.1  0.2 1.8 0  0.2 1.8 0.1  0.3 1.8 0  0.3 1.8 0.1  0.4 1.8 0  0.4 1.8 0.1  0.5 1.8 0  0.5 1.8 0.1  0.6 1.8 0  0.6 1.8 0.1  0.7 1.8 0  0.7 1.8 0.1  0.8 1.8 0  0.8 1.8 0.1  0.9 1.8 0  0.9 1.8 0.1  1 1.8 0  1 1.8 0.1  1.1 1.8 0  1.1 1.8 0.1  1.2 1.8 0  1.2 1.8 0.1  1.3 1.8 0  1.3 1.8 0.1  1.4 1.8 0  1.4 1.8 0.1  0.1 1.9 0  0.1 1.9 0.1  0 1.9 0  0 1.9 0.1  0.2 1.9 0  0.2 1.9 0.1  0.3 1.9 0  0.3 1.9 0.1  0.4 1.9 0  0.4 1.9 0.1  0.5 1.9 0  0.5 1.9 0.1  0.6 1.9 0  0.6 1.9 0.1  0.7 1.9 0  0.7 1.9 0.1  0.8 1.9 0  0.8 1.9 0.1  0.9 1.9 0  0.9 1.9 0.1  1 1.9 0  1 1.9 0.1  1.1 1.9 0  1.1 1.9 0.1  1.2 1.9 0  1.2 1.9 0.1  1.3 1.9 0  1.3 1.9 0.1  1.4 1.9 0  1.4 1.9 0.1  1.5 1.9 0.1  0.1 2 0  0.1 2 0.1  0 2 0  0 2 0.1  0.2 2 0  0.2 2 0.1  0.3 2 0  0.3 2 0.1  0.4 2 0  0.4 2 0.1  0.5 2 0  0.5 2 0.1  0.6 2 0  0.6 2 0.1  0.7 2 0  0.7 2 0.1  0.8 2 0  0.8 2 0.1  0.9 2 0  0.9 2 0.1  1 2 0  1 2 0.1  1.1 2 0  1.1 2 0.1  1.2 2 0  1.2 2 0.1  1.3 2 0  1.3 2 0.1  1.4 2 0  1.4 2 0.1  1.5 2 0.1  0.1 2.1 0  0.1 2.1 0.1  0 2.1 0  0 2.1 0.1  0.2 2.1 0  0.2 2.1 0.1  0.3 2.1 0  0.3 2.1 0.1  0.4 2.1 0  0.4 2.1 0.1  0.5 2.1 0  0.5 2.1 0.1  0.6 2.1 0  0.6 2.1 0.1  0.7 2.1 0  0.7 2.1 0.1  0.8 2.1 0  0.8 2.1 0.1  0.9 2.1 0  0.9 2.1 0.1  1 2.1 0  1 2.1 0.1  1.1 2.1 0  1.1 2.1 0.1  1.2 2.1 0  1.2 2.1 0.1  1.3 2.1 0  1.3 2.1 0.1  1.4 2.1 0  1.4 2.1 0.1  1.5 2.1 0.1  1.5 2.1 0  0.1 2.2 0  0.1 2.2 0.1  0 2.2 0  0 2.2 0.1  0.2 2.2 0  0.2 2.2 0.1  0.3 2.2 0  0.3 2.2 0.1  0.4 2.2 0  0.4 2.2 0.1  0.5 2.2 0  0.5 2.2 0.1  0.6 2.2 0  0.6 2.2 0.1  0.7 2.2 0  0.7 2.2 0.1  0.8 2.2 0  0.8 2.2 0.1  0.9 2.2 0  0.9 2.2 0.1  1 2.2 0  1 2.2 0.1  1.1 2.2 0  1.1 2.2 0.1  1.2 2.2 0  1.2 2.2 0.1  1.3 2.2 0  1.3 2.2 0.1  1.4 2.2 0  1.4 2.2 0.1  1.5 2.2 0  1.5 2.2 0.1  0.1 2.3 0  0.1 2.3 0.1  0 2.3 0  0 2.3 0.1  0.2 2.3 0  0.2 2.3 0.1  0.3 2.3 0  0.3 2.3 0.1  0.4 2.3 0  0.4 2.3 0.1  0.5 2.3 0  0.5 2.3 0.1  0.6 2.3 0  0.6 2.3 0.1  0.7 2.3 0  0.7 2.3 0.1  0.8 2.3 0  0.8 2.3 0.1  0.9 2.3 0  0.9 2.3 0.1  1 2.3 0  1 2.3 0.1  1.1 2.3 0  1.1 2.3 0.1  1.2 2.3 0  1.2 2.3 0.1  1.3 2.3 0  1.3 2.3 0.1  1.4 2.3 0  1.4 2.3 0.1  1.5 2.3 0  1.5 2.3 0.1  0.1 2.4 0.1  0 2.4 0.1  0.2 2.4 0  0.2 2.4 0.1  0.3 2.4 0  0.3 2.4 0.1  0.4 2.4 0  0.4 2.4 0.1  0.5 2.4 0  0.5 2.4 0.1  0.6 2.4 0  0.6 2.4 0.1  0.7 2.4 0  0.7 2.4 0.1  0.8 2.4 0  0.8 2.4 0.1  0.9 2.4 0  0.9 2.4 0.1  1 2.4 0  1 2.4 0.1  1.1 2.4 0  1.1 2.4 0.1  1.2 2.4 0  1.2 2.4 0.1  1.3 2.4 0  1.3 2.4 0.1  1.4 2.4 0  1.4 2.4 0.1  1.5 2.4 0  1.5 2.4 0.1  1.6 2.4 0.1  0.4 2.5 0.1  0.5 2.5 0.1  0.6 2.5 0.1  0.7 2.5 0  0.7 2.5 0.1  0.8 2.5 0  0.8 2.5 0.1  0.9 2.5 0  0.9 2.5 0.1  1 2.5 0  1 2.5 0.1  1.1 2.5 0  1.1 2.5 0.1  1.2 2.5 0  1.2 2.5 0.1  1.3 2.5 0  1.3 2.5 0.1  1.4 2.5 0  1.4 2.5 0.1  1.5 2.5 0  1.5 2.5 0.1  1.6 2.5 0.1  1.6 2.5 0  0.9 2.6 0  0.9 2.6 0.1  1 2.6 0  1 2.6 0.1  1.1 2.6 0  1.1 2.6 0.1  1.2 2.6 0  1.2 2.6 0.1  1.3 2.6 0  1.3 2.6 0.1  1.4 2.6 0  1.4 2.6 0.1  1.5 2.6 0  1.5 2.6 0.1  1.6 2.6 0  1.6 2.6 0.1  1.7 2.6 0.1  1.4 2.7 0.1  1.5 2.7 0.1  1.6 2.7 0.1  1.7 2.7 0.1  0.1 0.1 0.2  0.1 0 0.2  0 0 0.2  0 0.1 0.2  0.2 0.1 0.2  0.2 0 0.2  0.3 0.1 0.2  0.3 0 0.2  0.4 0.1 0.2  0.4 0 0.2  0.5 0.1 0.2  0.5 0 0.2  0.6 0.1 0.2  0.6 0 0.2  0.1 0.2 0.2  0 0.2 0.2  0.2 0.2 0.2  0.3 0.2 0.2  0.4 0.2 0.2  0.5 0.2 0.2  0.6 0.2 0.2  0.7 0.2 0.2  0.1 0.3 0.2  0 0.3 0.2  0.2 0.3 0.2  0.3 0.3 0.2  0.4 0.3 0.2  0.5 0.3 0.2  0.6 0.3 0.2  0.7 0.3 0.2  0.1 0.4 0.2  0 0.4 0.2  0.2 0.4 0.2  0.3 0.4 0.2  0.4 0.4 0.2  0.5 0.4 0.2  0.6 0.4 0.2  0.7 0.4 0.2  0.8 0.4 0.2  0.1 0.5 0.2  0 0.5 0.2  0.2 0.5 0.2  0.3 0.5 0.2  0.4 0.5 0.2  0.5 0.5 0.2  0.6 0.5 0.2  0.7 0.5 0.2  0.8 0.5 0.2  0.1 0.6 0.2  0 0.6 0.2  0.2 0.6 0.2  0.3 0.6 0.2  0.4 0.6 0.2  0.5 0.6 0.2  0.6 0.6 0.2  0.7 0.6 0.2  0.8 0.6 0.2  0.1 0.7 0.2  0 0.7 0.2  0.2 0.7 0.2  0.3 0.7 0.2  0.4 0.7 0.2  0.5 0.7 0.2  0.6 0.7 0.2  0.7 0.7 0.2  0.8 0.7 0.2  0.9 0.7 0.2  0.1 0.8 0.2  0 0.8 0.2  0.2 0.8 0.2  0.3 0.8 0.2  0.4 0.8 0.2  0.5 0.8 0.2  0.6 0.8 0.2  0.7 0.8 0.2  0.8 0.8 0.2  0.9 0.8 0.2  0.1 0.9 0.2  0 0.9 0.2  0.2 0.9 0.2  0.3 0.9 0.2  0.4 0.9 0.2  0.5 0.9 0.2  0.6 0.9 0.2  0.7 0.9 0.2  0.8 0.9 0.2  0.9 0.9 0.2  1 0.9 0.2  0.1 1 0.2  0 1 0.2  0.2 1 0.2  0.3 1 0.2  0.4 1 0.2  0.5 1 0.2  0.6 1 0.2  0.7 1 0.2  0.8 1 0.2  0.9 1 0.2  1 1 0.2  1.1 1 0.2  0.1 1.1 0.2  0 1.1 0.2  0.2 1.1 0.2  0.3 1.1 0.2  0.4 1.1 0.2  0.5 1.1 0.2  0.6 1.1 0.2  0.7 1.1 0.2  0.8 1.1 0.2  0.9 1.1 0.2  1 1.1 0.2  1.1 1.1 0.2  0.1 1.2 0.2  0 1.2 0.2  0.2 1.2 0.2  0.3 1.2 0.2  0.4 1.2 0.2  0.5 1.2 0.2  0.6 1.2 0.2  0.7 1.2 0.2  0.8 1.2 0.2  0.9 1.2 0.2  1 1.2 0.2  1.1 1.2 0.2  1.2 1.2 0.2  0.1 1.3 0.2  0 1.3 0.2  0.2 1.3 0.2  0.3 1.3 0.2  0.4 1.3 0.2  0.5 1.3 0.2  0.6 1.3 0.2  0.7 1.3 0.2  0.8 1.3 0.2  0.9 1.3 0.2  1 1.3 0.2  1.1 1.3 0.2  1.2 1.3 0.2  0.1 1.4 0.2  0 1.4 0.2  0.2 1.4 0.2  0.3 1.4 0.2  0.4 1.4 0.2  0.5 1.4 0.2  0.6 1.4 0.2  0.7 1.4 0.2  0.8 1.4 0.2  0.9 1.4 0.2  1 1.4 0.2  1.1 1.4 0.2  1.2 1.4 0.2  1.3 1.4 0.2  0.1 1.5 0.2  0 1.5 0.2  0.2 1.5 0.2  0.3 1.5 0.2  0.4 1.5 0.2  0.5 1.5 0.2  0.6 1.5 0.2  0.7 1.5 0.2  0.8 1.5 0.2  0.9 1.5 0.2  1 1.5 0.2  1.1 1.5 0.2  1.2 1.5 0.2  1.3 1.5 0.2  1.4 1.5 0.2  0.1 1.6 0.2  0 1.6 0.2  0.2 1.6 0.2  0.3 1.6 0.2  0.4 1.6 0.2  0.5 1.6 0.2  0.6 1.6 0.2  0.7 1.6 0.2  0.8 1.6 0.2  0.9 1.6 0.2  1 1.6 0.2  1.1 1.6 0.2  1.2 1.6 0.2  1.3 1.6 0.2  1.4 1.6 0.2  0.1 1.7 
[...]
<PointData  Scalars="p_O2"> 
<DataArray  type="Float64"  Name="p_O2"  format="ascii">4.0000000000000000e+01  4.0000000000000000e+01  4.0000000000000000e+01  4.8647995144314905e+01  4.0000000000000000e+01  4.0000000000000000e+01  4.0000000000000000e+01  4.0000000000000000e+01  6.9515573383196056e+01  6.5593897329006509e+01  6.1420334205705551e+01  6.5593897329104010e+01  7.8591173139626960e+01  7.5087639886189521e+01  7.1004546442625980e+01  7.5087639886377076e+01  8.3752791482347789e+01  8.0857051534612012e+01  7.7440517730328281e+01  8.0857051534720441e+01  8.7123177494539647e+01  8.4732390521095340e+01  8.1895514220943213e+01  8.4732390521477086e+01  8.9498243018197414e+01  8.7501676872273777e+01  8.5124445498259476e+01  8.7501676872274089e+01  4.0000000000000000e+01  4.8619517878748617e+01  4.0000000000000000e+01  4.0000000000000000e+01  6.4078691063140994e+01  5.9654148619178287e+01  7.3001952218845616e+01  6.8556017868229276e+01  7.8790794222032844e+01  7.4994486747909335e+01  8.2857359315583437e+01  7.9666417608011699e+01  8.5845069642003338e+01  8.3149704447966258e+01  8.5816087879489118e+01  4.0000000000000000e+01  4.8244153251199009e+01  4.0000000000000000e+01  4.0000000000000000e+01  6.3202573887150983e+01  5.8602539670723480e+01  7.1696654160371509e+01  6.7007343537654492e+01  7.7339878488470021e+01  7.3269718394768475e+01  8.1427102250498137e+01  7.7962359525960068e+01  8.4507676377022975e+01  8.1553376111438126e+01  8.4356516726077487e+01  8.6892314088876617e+01  4.0000000000000000e+01  4.7925971053379030e+01  4.0000000000000000e+01  4.0000000000000000e+01  6.2613102302725814e+01  5.7876715708187341e+01  7.0811190108116762e+01  6.5948846146363707e+01  7.6298472054761703e+01  7.2027276320778228e+01  8.0339223282560681e+01  7.6663534379724936e+01  8.3440803081879167e+01  8.0278268594255238e+01  8.5881461546054638e+01  8.3147137267621915e+01  4.0000000000000000e+01  4.7687890935410003e+01  4.0000000000000000e+01  4.0000000000000000e+01  6.2193437252189653e+01  5.7354605863102776e+01  7.0176841570347719e+01  6.5187041575100494e+01  7.5529095269911792e+01  7.1106931357002424e+01  7.9503822472604966e+01  7.5664421693045924e+01  8.2590804382761050e+01  7.9261162080609154e+01  8.5050165909425971e+01  8.2151741516212795e+01  8.4508280281150249e+01  4.0000000000000000e+01  4.7510817675317263e+01  4.0000000000000000e+01  4.0000000000000000e+01  6.1884528132384141e+01  5.6968612392303932e+01  6.9705943811354800e+01  6.4619995370325697e+01  7.4946200029762537e+01  7.0408356003335740e+01  7.8853677419796298e+01  7.4885816528749857e+01  8.1910541820557356e+01  7.8446344054517510e+01  8.4367327213325410e+01  8.1333491176995551e+01  8.3708810773706119e+01  8.6377483158478341e+01  4.0000000000000000e+01  4.7377093028589840e+01  4.0000000000000000e+01  4.0000000000000000e+01  6.1651276725434606e+01  5.6676562641374005e+01  6.9347304461888299e+01  6.4187418013983290e+01  7.4495437885034434e+01  6.9867430021526516e+01  7.8340868119001328e+01  7.4271042930795247e+01  8.1362308643572888e+01  7.7789127390794150e+01  8.3805265372516516e+01  8.0659527313829329e+01  8.5817743103591425e+01  8.3037401219428929e+01  8.7498240089524217e+01  8.5030509942755174e+01  4.0000000000000000e+01  4.7274247736479516e+01  4.0000000000000000e+01  4.0000000000000000e+01  6.1471425359707233e+01  5.6451140953569400e+01  6.9068627118507834e+01  6.3850932464419770e+01  7.4140938472289918e+01  6.9441621233947700e+01  7.7931380360354694e+01  7.3779738851934354e+01  8.0917068955337797e+01  7.7255017551166290e+01  8.3340877971936067e+01  8.0102372792960736e+01  8.5347573801445009e+01  8.2473173147860052e+01  8.7032404575978674e+01  8.4471327888118893e+01  4.0000000000000000e+01  4.7193788158063740e+01  4.0000000000000000e+01  4.0000000000000000e+01  6.1330294369804705e+01  5.6274145256878462e+01  6.8848505412642041e+01  6.3584954774835367e+01  7.3858201820507887e+01  6.9101772135790952e+01  7.7600816334182298e+01  7.3382876369669447e+01  8.0552740238121160e+01  7.6817726738661406e+01  8.2955486185329221e+01  7.9639775082191207e+01  8.4951917489380065e+01  8.1998174228063860e+01  8.6635173703437218e+01  8.3994337294742280e+01  8.5700818774370006e+01  4.0000000000000000e+01  4.7129895816624099e+01  4.0000000000000000e+01  4.0000000000000000e+01  6.1217907190138540e+01  5.6133144489583763e+01  6.8672254476733883e+01  6.3371873079341810e+01  7.3630025599640675e+01  6.8827356222367911e+01  7.7331425315680903e+01  7.3059292117041835e+01  8.0252541610518790e+01  7.6457244637108872e+01  8.2634209532297547e+01  7.9253981889589070e+01  8.4618189783880069e+01  8.1597383228169363e+01  8.6296273789871123e+01  8.3587268316288430e+01  8.5294519818713638e+01  8.7731991029284416e+01  4.0000000000000000e+01  4.7078515630145873e+01  4.0000000000000000e+01  4.0000000000000000e+01  6.1127308290273128e+01  5.6019449321912333e+01  6.8529529632029394e+01  6.3199252585703860e+01  7.3444057321508609e+01  6.8603605773705809e+01  7.7110106701421202e+01  7.2793341592282218e+01  8.0003665681327050e+01  7.6158278128478130e+01  8.2365261300420102e+01  7.8930915238233453e+01  8.4336030501021781e+01  8.1258421277951541e+01  8.6006914084038129e+01  8.3239612897107591e+01  8.7440485289876605e+01  8.4944234966208583e+01  8.8681951260504903e+01  8.6423538738627528e+01  4.0000000000000000e+01  4.7036765774954311e+01  4.0000000000000000e+01  4.0000000000000000e+01  6.1053539031703835e+01  5.5926855924908565e+01  6.8412882910483447e+01  6.3058126763242541e+01  7.3291259041967720e+01  6.8419700475624424e+01  7.6927062212084678e+01  7.2573309128042055e+01  7.9796274581215414e+01  7.5909066853125012e+01  8.2139313647465272e+01  7.8659423055056934e+01  8.4096978495448624e+01  8.0971169820403375e+01  8.5759681720286963e+01  8.2942503264998479e+01  8.7189353210777739e+01  8.4642403342554701e+01  8.8430514531331411e+01  8.6121302679401012e+01  8.7417291418638527e+01  4.0000000000000000e+01  4.7002559347685242e+01  4.0000000000000000e+01  4.0000000000000000e+01  6.0992994627788114e+01  5.5850850245951214e+01  6.8316851697098002e+01  6.2941912081123746e+01  7.3164911140316832e+01  6.8267586949058057e+01  7.6774874429258332e+01  7.2390316972241720e+01  7.9622757643522135e+01  7.5700504590483433e+01  8.1948972579528771e+01  7.8430658034482903e+01  8.3894150164796130e+01  8.0727390772688096e+01  8.5548382406069052e+01  8.2688524478861382e+01  8.6973171421934595e+01  8.4382531110197803e+01  8.8212554052299936e+01  8.5859264624642464e+01  8.7156218627900188e+01  8.9299259059984607e+01  4.0000000000000000e+01  4.6974359079092558e+01  4.0000000000000000e+01  4.0000000000000000e+01  6.0943009528024263e+01  5.5788092420902181e+01  6.8237365363886155e+01  6.2845698661695607e+01  7.3059948251571655e+01  6.8141189366280571e+01  7.6647867535486199e+01  7.2237566404658125e+01  7.9477185880328946e+01  7.5525491926734475e+01  8.1788360580007677e+01  7.8237582541897268e+01  8.3721953784633570e+01  8.0520387900208604e+01  8.5367869724879540e+01  8.2471512435882232e+01  8.6787329946687109e+01  8.4159095505315534e+01  8.8024031783631372e+01  8.5632585911058371e+01  8.9110337437181258e+01  8.6929038633454056e+01  9.0070938557683121e+01  8.8076973115695537e+01  4.0000000000000000e+01  4.6951015515343883e+01  4.0000000000000000e+01  4.0000000000000000e+01  6.0901583671017846e+01  5.5736075400353783e+01  6.8171349216364263e+01  6.2765775575066407e+01  7.2972506788196327e+01  6.8035870328454777e+01  7.6541657575081445e+01  7.2109802698130636e+01  7.9354910743123796e+01  7.5378459169847005e+01  8.1652791093111915e+01  7.8074581692402418e+01  8.3575848686547900e+01  8.0344720690873459e+01  8.5213884141871304e+01  8.2286362757305540e+01  8.6627938174119720e+01  8.3967433449863620e+01  8.7861472502547144e+01  8.5437100556916576e+01  8.8946581962300286e+01  8.6732099154918487e+01  8.9907679170950132e+01  8.7880614301561209e+01  8.8904761599775000e+01  4.0000000000000000e+01  4.6931658240471087e+01  4.0000000000000000e+01  4.0000000000000000e+01  6.0867197861711460e+01  5.5692894319568296e+01  6.8116454518413718e+01  6.2699306657470508e+01  7.2899610878894734e+01  6.7948056008872129e+01  7.6452831927651189e+01  7.2002933173016643e+01  7.9252267839265500e+01  7.5255013495003709e+01  8.1538516963829650e+01  7.7937163846770844e+01  8.3452148022645673e+01  8.0195969605736181e+01  8.5082910564399270e+01  8.2128861349028185e+01  8.6491731511000069e+01  8.3803630628366761e+01  8.7721910681885234e+01  8.5269252294187581e+01  8.8805349292328117e+01  8.6562229792346002e+01  8.9766249876556259e+01  8.7710496415162325e+01  8.8735911274756901e+01  9.0623427494863634e+01  4.0000000000000000e+01  4.6915621417552487e+01  4.0000000000000000e+01  4.0000000000000000e+01  6.0838686882701140e+01  5.5657087808226869e+01  6.8070871093440758e+01  6.2644105181516721e+01  7.2838950902526577e+01  6.7874971457528773e+01  7.6378718230356242e+01  7.1913751464569273e+01  7.9166357040029055e+01  7.5151676724896149e+01  8.1442536804756799e+01  7.7821729779759735e+01  8.3347859936169030e+01  8.0070546782610379e+01  8.4972056899252337e+01  8.1995539712037299e+01  8.6375985406045245e+01  8.3664419118247565e+01  8.7602835290521341e+01  8.5126028928673662e+01  8.8684368528381128e+01  8.6416706052224242e+01  8.9644630550295915e+01  8.7564195507174304e+01  9.0502271495410412e+01  8.8590158556055528e+01  4.0000000000000000e+01  4.6902391978355681e+01  4.0000000000000000e+01  4.0000000000000000e+01  6.0815150824444729e+01  5.5627527016811520e+01  6.8033195205825436e+01  6.2598474837190686e+01  7.2788725197280954e+01  6.7814451213945532e+01  7.6317216082415328e+01  7.1839736500886232e+01  7.9094878439082891e+01  7.5065689505398524e+01  8.1362446192212971e+01  7.7725395096299223e+01  8.3260561012269719e+01  7.9965545045626484e+01  8.4878952913881221e+01  8.1883554305370822e+01  8.6278439603032453e+01  8.3547087078267793e+01  8.7502137205091529e+01  8.5004899685256873e+01  8.8581708297669934e+01  8.6293210190398128e+01  8.9541081627686481e+01  8.7439623778720517e+01  9.0398781124872244e+01  8.8465650297693202e+01  4.0000000000000000e+01  4.6891573050670864e+01  4.0000000000000000e+01  4.0000000000000000e+01  6.0795892243760008e+01  5.5603336931007760e+01  6.8002335199952341e+01  6.2561096070916882e+01  7.2747525667087615e+01  6.7764802322118982e+01  7.6266673473156771e+01  7.1778904765134300e+01  7.9036009446313216e+01  7.4994864457311905e+01  8.1296323399215410e+01  7.7645853750282143e+01  8.3188296205459721e+01  7.9878618401303612e+01  8.4801667399576687e+01  8.1790587643999118e+01  8.6197233372369098e+01  8.3449401443031661e+01  8.7418061655473721e+01  8.4903758481843724e+01  8.8495744481484792e+01  8.6189792748964067e+01  8.9454124614775324e+01  8.7335006397839393e+01  9.0311630278218786e+01  8.8360794447916348e+01  8.9284120717230536e+01  4.0000000000000000e+01  4.6882857849995716e+01  4.0000000000000000e+01  4.0000000000000000e+01  6.0780371147401780e+01  5.5583839977356078e+01  6.7977443435506387e+01  6.2530944048149905e+01  7.2714254419951160e+01  6.7724704441119584e+01  7.6225795504571650e+01  7.1729701099654775e+01  7.8988312461001868e+01  7.4937475787857636e+01  8.1242641796302848e+01  7.7581273333138867e+01  8.3129500248587888e+01  7.9807888113488787e+01  8.4738641242735696e+01  8.1714768326459790e+01  8.6130851377695109e+01  8.3369543254985430e+01  8.7349166785536426e+01  8.4820874440276683e+01  8.8425130462703407e+01  8.6104837053733291e+01  8.9382522500816521e+01  8.7248858154329596e+01  9.0239699432795717e+01  8.8274246746344105e+01  8.9197874602744818e+01  4.0000000000000000e+01  4.6876010905449519e+01  4.0000000000000000e+01  4.0000000000000000e+01  6.0768172513966839e+01  5.5568515328871051e+01  6.7957866903530459e+01  6.2507229099181060e+01  7.2688062766287203e+01  6.7693136701234081e+01  7.6193576831778770e+01  7.1690917824431011e+01  7.8950665552081006e+01  7.4892176356758981e+01  8.1200202951001302e+01  7.7530215061732704e+01  8.3082936427670731e+01  7.9751869493203500e+01  8.4688634071535276e+01  8.1654607245425694e+01  8.6078079343554464e+01  8.3306054672138856e+01  8.7294288590242800e+01  8.4754849990007756e+01  8.8368770904564514e+01  8.6037027892757067e+01  8.9325261471111773e+01  8.7179961635702654e+01  9.0182064140678420e+01  8.8204897013703061e+01  8.9128636870292425e+01  9.0953581606520743e+01  4.0000000000000000e+01  4.6870854537158621e+01  4.0000000000000000e+01  4.0000000000000000e+01  6.0758982841664150e+01  5.5556969508894085e+01  6.7943111384356442e+01  6.2489353481276439e+01  7.2668306615880127e+01  6.7669324206959431e+01  7.6169251793750902e+01  7.1661635018011680e+01  7.8922210693413589e+01  7.4857935720545044e+01  8.1168085974055174e+01  7.7491573166107017e+01  8.3047649470337106e+01  7.9709415531954050e+01  8.4650682422495606e+01  8.1608947546555541e+01  8.6037968538418824e+01  8.3257796489325031e+01  8.7252512109649857e+01  8.4704586423711461e+01  8.8325799526464365e+01  8.5985324952875615e+01  8.9281534758962579e+01  8.7127347939213067e+01  9.0137984218032742e+01  8.8151856254602464e+01  9.0909509136629751e+01  8.9075602958424113e+01  4.0000000000000000e+01  4.6867259193181077e+01  4.0000000000000000e+01  4.0000000000000000e+01  6.0752573346178274e+01  5.5548915332420542e+01  6.7932815672674664e+01  6.2476880277034994e+01  7.2654514221049951e+01  6.7652699327227097e+01  7.6152258065021002e+01  7.1641176965554081e+01  7.8902315670254140e+01  7.4833994514818585e+01  8.1145609813275499e+01  7.7464529751449845e+01  8.3022930012406235e+01  7.9679674374790821e+01  8.4624067718194766e+01  8.1576926309160655e+01  8.6009808122024367e+01  8.3223915052005040e+01  8.7223148556394747e+01  8.4669256533246070e+01  8.8295561035857432e+01  8.5948941212889338e+01  8.9250729124829363e+01  8.7090280509360170e+01  9.0106894308036232e+01  8.8114445386323069e+01  9.0878389859410348e+01  8.9038155331650941e+01  4.6865136711407445e+01  4.0000000000000000e+01  6.0748788229805498e+01  5.5544157194314351e+01  6.7926733518438382e+01  6.2469511589033445e+01  7.2646363458912020e+01  6.7642874426165704e+01  7.6142210899957846e+01  7.1629081291297510e+01  7.8890546881034183e+01  7.4819831878936441e+01  8.1132306098560761e+01  7.7448522281068051e+01  8.3008288747686095e+01  7.9662058370336581e+01  8.4608292699820268e+01  8.1557946331958604e+01  8.5993104521484753e+01  8.3203817572524258e+01  8.7205717993368353e+01  8.4648283887544096e+01  8.8277597206634098e+01  8.5927326292269314e+01  8.9232414207994921e+01  8.7068242409082202e+01  9.0088396229305189e+01  8.8092186101024225e+01  9.0859860416993570e+01  8.9015857488331747e+01  8.9852659848202450e+01  6.7639623793189259e+01  7.1625078408494105e+01  7.4815143648558433e+01  8.1127900845467863e+01  7.7443221664926327e+01  8.3003438880202566e+01  7.9656223057509450e+01  8.4603065292400288e+01  8.1551656815281490e+01  8.5987567182201516e+01  8.3197155069560537e+01  8.7199937243253643e+01  8.4641328353772565e+01  8.8271637036323284e+01  8.5920154667802109e+01  8.9226334882984190e+01  8.7060927172743604e+01  9.0082253376014521e+01  8.8084794165588889e+01  9.0853704388363070e+01  8.9008449432511853e+01  8.9845289464826152e+01  9.1552126135198250e+01  8.4608289201074470e+01  8.1557942099730639e+01  8.5993100205745648e+01  8.3203812357409134e+01  8.7205712737814878e+01  8.4648277541655958e+01  8.8277590877012074e+01  8.5927318654868344e+01  8.9232406659685211e+01  8.7068233306460925e+01  9.0088387305626441e+01  8.8092175344230796e+01  9.0859849946237290e+01  8.9015844871077505e+01  9.1558238429483310e+01  8.9852645144617156e+01  9.0613493764633290e+01  8.8114424029313142e+01  8.9038130263671789e+01  8.9874805069483770e+01  9.0635387168311922e+01  4.8619517878470319e+01  4.0000000000000000e+01  4.0000000000000000e+01  4.0000000000000000e+01  5.9654148618890758e+01  6.4078691063221342e+01  6.8556017867939531e+01  7.3001952217552926e+01  7.4994486747689464e+01  7.8790794222045577e+01  7.9666417607413635e+01  8.2857359315124214e+01  8.3149704447519170e+01  8.5845069641944207e+01  4.8634977201645313e+01  4.0000000000000000e+01  5.7735733710227414e+01  6.5851285159493898e+01  7.2254871218947613e+01  7.7147685913685081e+01  8.0904404851090234e+01  8.3833219538899286e+01  4.8186726175935966e+01  4.0000000000000000e+01  5.6549997704307508e+01  6.4109229343213414e+01  7.0305731996588278e+01  7.5212277133833382e+01  7.9083506055733707e+01  8.2162423726529951e+01  4.7783482141209106e+01  4.0000000000000000e+01  5.5706885768326423e+01  6.2901648701783216e+01  6.8890612102172994e+01  7.3729907788440272e+01  7.7624332928534216e+01  8.0774957390855079e+01  8.3346040567170192e+01  4.7475332118316707e+01  4.0000000000000000e+01  5.5091269402654774e+01  6.2024436206952714e+01  6.7836011223052509e+01  7.2584888206376490e+01  7.6457005704767084e+01  7.9630573652549472e+01  8.2251243089780914e+01  4.7243883091097871e+01  4.0000000000000000e+01  5.4632389215253745e+01  6.1367579880021736e+01  6.7031999899325371e+01  7.1689626134687515e+01  7.5519504007390495e+01  7.8688057827690045e+01  8.1329218558201120e+01  4.7068219131486863e+01  4.0000000000000000e+01  5.4283584810737132e+01  6.0864547481732906e+01  6.6407441584264674e+01  7.0980907533267981e+01  7.4761756798663981e+01  7.7910449048678203e+01  8.0553857662963168e+01  8.2790090032163789e+01  4.6932737771062882e+01  4.0000000000000000e+01  5.4013582500667603e+01  6.0472217102789905e+01  6.5914634280934948e+01  7.0413370709272613e+01  7.4144888584690960e+01  7.7266694476458980e+01  7.9901505143721721e+01  8.2143101899493914e+01  4.6826557401741397e+01  4.0000000000000000e+01  5.3801172265231266e+01  6.0161501861014159e+01  6.5520603272634474e+01  6.9954186217496755e+01  7.3639124711687160e+01  7.6731542862735679e+01  7.9351750782382126e+01  8.1590731621762203e+01  8.3518066515923095e+01  4.6742137410883096e+01  4.0000000000000000e+01  5.3631722952613735e+01  5.9912220375501988e+01  6.5201989397830545e+01  6.9579297805554404e+01  7.3221706021613855e+01  7.6284779132703648e+01  7.8887465751751137e+01  8.1118968225602401e+01  8.3046971256381951e+01  8.4723786024154847e+01  4.6674188622895628e+01  4.0000000000000000e+01  5.3494943852862058e+01  5.9710046231983604e+01  6.4941908503769483e+01  6.9270851401711809e+01  7.2875178840276590e+01  7.5910324756531949e+01  7.8494498004277702e+01  8.0715785462740868e+01  8.2640582388860381e+01  8.4319891126312271e+01  4.6618937388227266e+01  4.0000000000000000e+01  5.3383458072146709e+01  5.9544609381385925e+01  6.4727946102454609e+01  6.9015434345799150e+01  7.2586083494740450e+01  7.5595411075713074e+01  7.8161254014645493e+01  8.0371014459656507e+01  8.2290222176696687e+01  8.3968944363407033e+01  8.5446200035844626e+01  4.6573643924520667e+01  4.0000000000000000e+01  5.3291882902951642e+01  5.9408274279941679e+01  6.4550837148364522e+01  6.8802857147747730e+01  7.2343973722953066e+01  7.5329886959286526e+01  7.7878276950416392e+01  8.0076137855586808e+01  8.1988426114799651e+01  8.3664548182926978e+01  8.5142838180653271e+01  4.6536286376022773e+01  4.0000000000000000e+01  5.3216227553520419e+01  5.9295334167113289e+01  6.4403576620835892e+01  6.8625300438104290e+01  7.2140689658161321e+01  7.5105663256006764e+01  7.7637867419326440e+01  7.9824064621570642e+01  8.1728837399503647e+01  8.3401129954182153e+01  8.4878772819975808e+01  8.6191560687352336e+01  4.6505350917905446e+01  4.0000000000000000e+01  5.3153491615876703e+01  5.9201468458394757e+01  6.4280808602730801e+01  6.8476710360550840e+01  7.1969819304945190e+01  7.4916276382243197e+01  7.7433761117577717e+01  7.9608915262118629e+01  8.1506082430659887e+01  8.3173886609204899e+01  8.4649791102699581e+01  8.5963205305551512e+01  8.7137615067479587e+01  4.6479690019218914e+01  4.0000000000000000e+01  5.3101392507552291e+01  5.9123370485312691e+01  6.4178399630950025e+01  6.8352365154413391e+01  7.1826298622130508e+01  7.4756549117727317e+01  7.7260863182367245e+01  7.9425830344562428e+01  8.1315645823314284e+01  8.2978714159056992e+01  8.4452232842716001e+01  8.5765321144555259e+01  8.6941168619926501e