<?xml version="1.0"?>
<VTKFile type="UnstructuredGrid"  version="0.1"  >
<UnstructuredGrid>
<Piece  NumberOfPoints="2061" NumberOfCells="9579">
<Points>
<DataArray  type="Float64"  NumberOfComponents="3"  format="ascii">4 1 2.5  4 1.25 2.5  4 1.25 2.25  3.75 1.25 2.25  4 1.5 2.5  3.5 1 2.5  3.75 1.25 2.5  3.75 1 2.5  3.5 1.25 2.5  3.5 1.5 2.5  3.75 1.5 2.5  3.75 1.5 2.25  4.25 1.25 2.5  4.25 1.25 2.25  3.5 1.75 2.5  3.5 1.75 2.25  3.25 1.75 2.25  3.5 2 2.5  3 1.5 2.5  3.25 1.75 2.5  3.25 1.5 2.5  3 1.75 2.5  3 2 2.5  3.25 2 2.5  4 1.75 2.5  4 1.75 2.25  3.75 1.75 2.25  4 2 2.5  3.75 1.75 2.5  3.75 2 2.5  3.75 2 2.25  4.25 1.75 2.5  4.25 1.5 2.5  4.25 1.75 2.25  4.5 1.5 2.5  4.5 1.75 2.5  4.5 2 2.5  4.25 2 2.5  3.75 2.25 2.5  3.75 2.25 2.25  3.5 2.25 2.5  3.5 2.5 2.5  3.5 0.5 2.5  3.5 0.5 2.75  3.5 0.25 2.75  3.25 0.25 2.75  3.5 0.5 3  3.5 0 2.5  3.5 0 2.75  3.25 0 2.75  3.5 0 3  3.5 0.25 3  3 0 3  3.25 0.25 3  3.25 0 3  3 0 2.75  3 0.5 2.5  3.25 0.5 2.75  3.25 0.5 2.5  3 0.25 3  3 0.25 2.75  3 0.5 3  3.25 0.5 3  3 0.5 2.75  4 0.5 2.5  4 0.5 2.75  4 0.25 2.75  3.75 0.25 2.75  4 0.5 3  4 0 3  4 0.25 3  3.75 0 2.75  3.75 0.25 3  3.75 0 3  3.75 0.5 2.75  3.75 0.5 2.5  3.75 0.5 3  4.5 0.5 2.5  4.5 0.5 2.75  4.5 0.25 2.75  4.25 0.25 2.75  4.5 0.5 3  4.5 0 3  4.5 0.25 3  4.25 0.25 3  4.25 0 3  4.25 0.5 2.75  4.25 0.5 3  5 0 2.5  5 0.25 2.75  5 0 2.75  4.75 0.25 2.75  4.75 0 2.75  5 0 3  5 0.25 3  5 0.5 3  4.75 0.25 3  4.75 0 3  4.75 0.5 3  4.75 0.5 2.75  3.5 1 2.75  3.5 0.75 2.75  3.25 0.75 2.75  3.5 1 3  3.5 0.75 3  3.25 0.75 3  3.25 1 2.75  3 0.75 2.75  3 0.75 3  3 1 3  3.25 1 3  3 0.75 2.5  3 1 2.5  3 1 2.75  4 0.75 2.75  4 0.75 2.5  3.75 0.75 2.75  4 1 2.75  4 1 3  4 0.75 3  3.75 0.75 3  3.75 1 2.75  3.75 1 3  4.5 1 2.5  4.5 1 2.75  4.5 0.75 2.75  4.25 0.75 2.75  4.5 1 3  4.5 0.75 3  4.25 0.75 3  4.25 1 2.75  4.25 1 2.5  4.25 1 3  4.75 0.75 2.75  4.75 0.75 3  5 0.75 3  5 1 3  4.75 1 3  4.75 1 2.75  3.5 1.25 2.75  3.25 1.25 2.75  3.5 1.5 2.75  3.5 1.5 3  3.5 1.25 3  3.25 1.25 3  3.25 1.5 2.75  3 1.25 2.75  3 1.25 3  3 1.5 3  3.25 1.5 3  3 1.25 2.5  3 1.5 2.75  3.75 1.25 2.75  4 1.25 2.75  4 1.5 2.75  4 1.5 3  4 1.25 3  3.75 1.25 3  3.75 1.5 2.75  3.75 1.5 3  4.5 1.5 2.75  4.5 1.25 2.75  4.25 1.25 2.75  4.5 1.5 3  4.5 1.25 3  4.25 1.25 3  4.25 1.5 2.75  4.25 1.5 3  4.75 1.25 2.75  4.75 1.25 3  5 1.25 3  5 1.5 3  4.75 1.5 3  4.75 1.5 2.75  3.25 1.75 2.75  3.5 1.75 2.75  3.5 2 2.75  3.5 2 3  3.5 1.75 3  3.25 1.75 3  3.25 2 2.75  3 1.75 2.75  3 1.75 3  3 2 3  3.25 2 3  3 2 2.75  3.75 1.75 2.75  4 1.75 2.75  4 2 2.75  4 2 3  4 1.75 3  3.75 1.75 3  3.75 2 2.75  3.75 2 3  4.25 1.75 2.75  4.5 1.75 2.75  4.5 2 2.75  4.5 2 3  4.5 1.75 3  4.25 1.75 3  4.25 2 2.75  4.25 2 3  5 2 2.5  5 2 2.75  5 1.75 2.75  4.75 1.75 2.75  5 2 3  5 1.75 3  4.75 1.75 3  4.75 2 2.75  4.75 2 2.5  4.75 2 3  3.5 2.25 2.75  3.25 2.25 2.75  3.5 2.5 2.75  3.5 2.5 3  3.5 2.25 3  3.25 2.25 3  3.75 2.25 2.75  4 2.25 2.75  4 2.25 3  4 2.5 3  3.75 2.25 3  3.75 2.5 3  3.75 2.5 2.75  4.25 2.25 2.75  4.5 2.25 2.75  4.5 2.25 3  4.25 2.25 3  4.75 2.25 2.75  4.75 2.25 2.5  5 2.25 2.75  5 2.25 2.5  5 2.5 2.5  4.75 2.25 3  3.25 0.25 3.25  3.5 0.25 3.25  3.5 0.5 3.25  3.5 0.5 3.5  3.25 0 3.25  3.5 0 3.25  3.5 0 3.5  3.5 0.25 3.5  3 0 3.25  3 0 3.5  3.25 0.25 3.5  3.25 0 3.5  3.25 0.5 3.25  3 0.25 3.25  3 0.25 3.5  3 0.5 3.5  3.25 0.5 3.5  3 0.5 3.25  3.75 0.25 3.25  4 0.25 3.25  4 0.5 3.25  4 0.5 3.5  3.75 0 3.25  4 0 3.25  4 0 3.5  4 0.25 3.5  3.75 0.25 3.5  3.75 0 3.5  3.75 0.5 3.25  3.75 0.5 3.5  4.25 0.25 3.25  4.5 0.25 3.25  4.5 0.5 3.25  4.5 0.5 3.5  4.25 0 3.25  4.5 0 3.25  4.5 0 3.5  4.5 0.25 3.5  4.25 0.25 3.5  4.25 0 3.5  4.25 0.5 3.25  4.25 0.5 3.5  4.75 0.25 3.25  5 0.25 3.25  5 0.5 3.25  5 0.5 3.5  4.75 0 3.25  5 0 3.25  5 0 3.5  5 0.25 3.5  4.75 0.25 3.5  4.75 0 3.5  4.75 0.5 3.25  4.75 0.5 3.5  3.25 0.75 3.25  3.5 0.75 3.25  3.5 1 3.25  3.5 1 3.5  3.5 0.75 3.5  3.25 0.75 3.5  3.25 1 3.25  3 0.75 3.25  3 0.75 3.5  3 1 3.5  3.25 1 3.5  3 1 3.25  3.75 0.75 3.25  4 0.75 3.25  4 1 3.25  4 1 3.5  4 0.75 3.5  3.75 0.75 3.5  3.75 1 3.25  3.75 1 3.5  4.25 0.75 3.25  4.5 0.75 3.25  4.5 1 3.25  4.5 1 3.5  4.5 0.75 3.5  4.25 0.75 3.5  4.25 1 3.25  4.25 1 3.5  4.75 0.75 3.25  5 0.75 3.25  5 1 3.25  5 1 3.5  5 0.75 3.5  4.75 0.75 3.5  4.75 1 3.25  4.75 1 3.5  3.25 1.25 3.25  3.5 1.25 3.25  3.5 1.5 3.25  3.5 1.5 3.5  3.5 1.25 3.5  3.25 1.25 3.5  3.25 1.5 3.25  3 1.25 3.25  3 1.25 3.5  3 1.5 3.5  3.25 1.5 3.5  3 1.5 3.25  3.75 1.25 3.25  4 1.25 3.25  4 1.5 3.25  4 1.5 3.5  4 1.25 3.5  3.75 1.25 3.5  3.75 1.5 3.25  3.75 1.5 3.5  4.25 1.25 3.25  4.5 1.25 3.25  4.5 1.5 3.25  4.5 1.5 3.5  4.5 1.25 3.5  4.25 1.25 3.5  4.25 1.5 3.25  4.25 1.5 3.5  4.75 1.25 3.25  5 1.25 3.25  5 1.5 3.25  5 1.5 3.5  5 1.25 3.5  4.75 1.25 3.5  4.75 1.5 3.25  4.75 1.5 3.5  3.25 1.75 3.25  3.5 1.75 3.25  3.5 2 3.25  3.5 2 3.5  3.5 1.75 3.5  3.25 1.75 3.5  3.25 2 3.25  3 1.75 3.25  3 1.75 3.5  3 2 3.5  3.25 2 3.5  3 2 3.25  3.75 1.75 3.25  4 1.75 3.25  4 2 3.25  4 2 3.5  4 1.75 3.5  3.75 1.75 3.5  3.75 2 3.25  3.75 2 3.5  4.25 1.75 3.25  4.5 1.75 3.25  4.5 2 3.25  4.5 2 3.5  4.5 1.75 3.5  4.25 1.75 3.5  4.25 2 3.25  4.25 2 3.5  4.75 1.75 3.25  5 1.75 3.25  5 2 3.25  5 2 3.5  5 1.75 3.5  4.75 1.75 3.5  4.75 2 3.25  4.75 2 3.5  3.25 2.25 3.25  3.5 2.25 3.25  3.5 2.5 3.25  3.5 2.5 3.5  3.5 2.25 3.5  3.25 2.25 3.5  3 2.25 3.25  3.75 2.25 3.25  4 2.25 3.25  4 2.5 3.25  4 2.5 3.5  4 2.25 3.5  3.75 2.25 3.5  3.75 2.5 3.25  3.75 2.5 3.5  4.25 2.25 3.25  4.5 2.25 3.25  4.5 2.25 3.5  4.5 2.5 3.5  4.25 2.25 3.5  4.25 2.5 3.5  4.75 2.25 3.25  5 2.25 3.25  5 2.25 3.5  5 2.5 3.5  4.75 2.25 3.5  4.75 2.5 3.5  3.25 0.25 3.75  3.5 0.25 3.75  3.5 0.5 3.75  3.5 0.5 4  3.25 0 3.75  3.5 0 3.75  3.5 0 4  3.5 0.25 4  3 0 3.75  3 0 4  3.25 0.25 4  3.25 0 4  3.25 0.5 3.75  3 0.25 3.75  3 0.25 4  3 0.5 4  3.25 0.5 4  3 0.5 3.75  3.75 0.25 3.75  4 0.25 3.75  4 0.5 3.75  4 0.5 4  3.75 0 3.75  4 0 3.75  4 0 4  4 0.25 4  3.75 0.25 4  3.75 0 4  3.75 0.5 3.75  3.75 0.5 4  4.25 0.25 3.75  4.5 0.25 3.75  4.5 0.5 3.75  4.5 0.5 4  4.25 0 3.75  4.5 0 3.75  4.5 0 4  4.5 0.25 4  4.25 0.25 4  4.25 0 4  4.25 0.5 3.75  4.25 0.5 4  4.75 0.25 3.75  5 0.25 3.75  5 0.5 3.75  5 0.5 4  4.75 0 3.75  5 0 3.75  5 0 4  5 0.25 4  4.75 0.25 4  4.75 0 4  4.75 0.5 3.75  4.75 0.5 4  3.25 0.75 3.75  3.5 0.75 3.75  3.5 1 3.75  3.5 1 4  3.5 0.75 4  3.25 0.75 4  3.25 1 3.75  3 0.75 3.75  3 0.75 4  3 1 4  3.25 1 4  3 1 3.75  3.75 0.75 3.75  4 0.75 3.75  4 1 3.75  4 1 4  4 0.75 4  3.75 0.75 4  3.75 1 3.75  3.75 1 4  4.25 0.75 3.75  4.5 0.75 3.75  4.5 1 3.75  4.5 1 4  4.5 0.75 4  4.25 0.75 4  4.25 1 3.75  4.25 1 4  4.75 0.75 3.75  5 0.75 3.75  5 1 3.75  5 1 4  5 0.75 4  4.75 0.75 4  4.75 1 3.75  4.75 1 4  3.25 1.25 3.75  3.5 1.25 3.75  3.5 1.5 3.75  3.5 1.5 4  3.5 1.25 4  3.25 1.25 4  3.25 1.5 3.75  3 1.25 3.75  3 1.25 4  3 1.5 4  3.25 1.5 4  3 1.5 3.75  3.75 1.25 3.75  4 1.25 3.75  4 1.5 3.75  4 1.5 4  4 1.25 4  3.75 1.25 4  3.75 1.5 3.75  3.75 1.5 4  4.25 1.25 3.75  4.5 1.25 3.75  4.5 1.5 3.75  4.5 1.5 4  4.5 1.25 4  4.25 1.25 4  4.25 1.5 3.75  4.25 1.5 4  4.75 1.25 3.75  5 1.25 3.75  5 1.5 3.75  5 1.5 4  5 1.25 4  4.75 1.25 4  4.75 1.5 3.75  4.75 1.5 4  3.25 1.75 3.75  3.5 1.75 3.75  3.5 2 3.75  3.5 2 4  3.5 1.75 4  3.25 1.75 4  3.25 2 3.75  3 1.75 3.75  3 1.75 4  3 2 4  3.25 2 4  3 2 3.75  3.75 1.75 3.75  4 1.75 3.75  4 2 3.75  4 2 4  4 1.75 4  3.75 1.75 4  3.75 2 3.75  3.75 2 4  4.25 1.75 3.75  4.5 1.75 3.75  4.5 2 3.75  4.5 2 4  4.5 1.75 4  4.25 1.75 4  4.25 2 3.75  4.25 2 4  4.75 1.75 3.75  5 1.75 3.75  5 2 3.75  5 2 4  5 1.75 4  4.75 1.75 4  4.75 2 3.75  4.75 2 4  3.25 2.25 3.75  3.75 2.25 3.75  4 2.25 3.75  3.75 2.25 4  4.25 2.25 3.75  4.5 2.25 3.75  4.25 2.25 4  4.75 2.25 3.75  5 2.25 3.75  5 2.5 3.75  5 2.5 4  5 2.25 4  4.75 2.25 4  3.25 0.25 4.25  3.5 0.25 4.25  3.5 0.5 4.25  3.5 0.5 4.5  3.25 0 4.25  3.5 0 4.25  3.5 0 4.5  3.5 0.25 4.5  3 0 4.25  3 0 4.5  3.25 0.25 4.5  3.25 0 4.5  3.25 0.5 4.25  3 0.25 4.25  3 0.25 4.5  3 0.5 4.5  3.25 0.5 4.5  3 0.5 4.25  3.75 0.25 4.25  4 0.25 4.25  4 0.5 4.25  4 0.5 4.5  3.75 0 4.25  4 0 4.25  4 0 4.5  4 0.25 4.5  3.75 0.25 4.5  3.75 0 4.5  3.75 0.5 4.25  3.75 0.5 4.5  4.25 0.25 4.25  4.5 0.25 4.25  4.5 0.5 4.25  4.5 0.5 4.5  4.25 0 4.25  4.5 0 4.25  4.5 0 4.5  4.5 0.25 4.5  4.25 0.25 4.5  4.25 0 4.5  4.25 0.5 4.25  4.25 0.5 4.5  4.75 0.25 4.25  5 0.25 4.25  5 0.5 4.25  5 0.5 4.5  4.75 0 4.25  5 0 4.25  5 0 4.5  5 0.25 4.5  4.75 0.25 4.5  4.75 0 4.5  4.75 0.5 4.25  4.75 0.5 4.5  3.25 0.75 4.25  3.5 0.75 4.25  3.5 1 4.25  3.5 1 4.5  3.5 0.75 4.5  3.25 0.75 4.5  3.25 1 4.25  3 0.75 4.25  3 0.75 4.5  3 1 4.5  3.25 1 4.5  3 1 4.25  3.75 0.75 4.25  4 0.75 4.25  4 1 4.25  4 1 4.5  4 0.75 4.5  3.75 0.75 4.5  3.75 1 4.25  3.75 1 4.5  4.25 0.75 4.25  4.5 0.75 4.25  4.5 1 4.25  4.5 1 4.5  4.5 0.75 4.5  4.25 0.75 4.5  4.25 1 4.25  4.25 1 4.5  4.75 0.75 4.25  5 0.75 4.25  5 1 4.25  5 1 4.5  5 0.75 4.5  4.75 0.75 4.5  4.75 1 4.25  4.75 1 4.5  3.25 1.25 4.25  3.5 1.25 4.25  3.5 1.5 4.25  3.5 1.5 4.5  3.5 1.25 4.5  3.25 1.25 4.5  3.25 1.5 4.25  3 1.25 4.25  3 1.25 4.5  3 1.5 4.5  3.25 1.5 4.5  3 1.5 4.25  3.75 1.25 4.25  4 1.25 4.25  4 1.5 4.25  4 1.5 4.5  4 1.25 4.5  3.75 1.25 4.5  3.75 1.5 4.25  3.75 1.5 4.5  4.25 1.25 4.25  4.5 1.25 4.25  4.5 1.5 4.25  4.5 1.5 4.5  4.5 1.25 4.5  4.25 1.25 4.5  4.25 1.5 4.25  4.25 1.5 4.5  4.75 1.25 4.25  5 1.25 4.25  5 1.5 4.25  5 1.5 4.5  5 1.25 4.5  4.75 1.25 4.5  4.75 1.5 4.25  4.75 1.5 4.5  3.25 1.75 4.25  3.5 1.75 4.25  3.5 2 4.25  3.5 2 4.5  3.5 1.75 4.5  3.25 1.75 4.5  3.25 2 4.25  3 1.75 4.25  3 1.75 4.5  3 2 4.5  3.25 2 4.5  3 2 4.25  3.75 1.75 4.25  4 1.75 4.25  4 2 4.25  4 2 4.5  4 1.75 4.5  3.75 1.75 4.5  3.75 2 4.25  3.75 2 4.5  4.25 1.75 4.25  4.5 1.75 4.25  4.5 2 4.25  4.5 2 4.5  4.5 1.75 4.5  4.25 1.75 4.5  4.25 2 4.25  4.25 2 4.5  4.75 1.75 4.25  5 1.75 4.25  5 2 4.25  5 2 4.5  5 1.75 4.5  4.75 1.75 4.5  4.75 2 4.25  4.75 2 4.5  3.25 2.25 4.25  3.5 2.25 4.25  3.25 2.25 4.5  3 2.25 4.25  3 2.25 4.5  3 2.5 4.5  3.75 2.25 4.25  4 2.25 4.25  4.25 2.25 4.25  4.5 2.25 4.25
[...]
<PointData  Scalars="p"> 
<DataArray  type="Float64"  Name="p"  format="ascii">8.0399999999862626e+00  8.0399999999861862e+00  8.0399999999861382e+00  8.0499999999831395e+00  8.0399999999862537e+00  8.0599999999805032e+00  8.0499999999831626e+00  8.0499999999832159e+00  8.0599999999804339e+00  8.0599999999804908e+00  8.0499999999832212e+00  8.0499999999831697e+00  8.0299999999892897e+00  8.0299999999892595e+00  8.0599999999804304e+00  8.0599999999803789e+00  8.0699999999777337e+00  8.0599999999804872e+00  8.0799999999754419e+00  8.0699999999777514e+00  8.0699999999778083e+00  8.0799999999753744e+00  8.0799999999754348e+00  8.0699999999777976e+00  8.0399999999861844e+00  8.0399999999861329e+00  8.0499999999831378e+00  8.0399999999862430e+00  8.0499999999831591e+00  8.0499999999832053e+00  8.0499999999831502e+00  8.0299999999892897e+00  8.0299999999893465e+00  8.0299999999892719e+00  8.0199999999927680e+00  8.0199999999926987e+00  8.0199999999927787e+00  8.0299999999893465e+00  8.0499999999831484e+00  8.0499999999831235e+00  8.0599999999804179e+00  8.0599999999804730e+00  8.0599999999805068e+00  8.0599999999804695e+00  8.0599999999803877e+00  8.0699999999777514e+00  8.0599999999805174e+00  8.0599999999805050e+00  8.0599999999804233e+00  8.0699999999777532e+00  8.0599999999804872e+00  8.0599999999804375e+00  8.0799999999754633e+00  8.0699999999777674e+00  8.0699999999777994e+00  8.0799999999754046e+00  8.0799999999754633e+00  8.0699999999777727e+00  8.0699999999778278e+00  8.0799999999753993e+00  8.0799999999753460e+00  8.0799999999754561e+00  8.0699999999778260e+00  8.0799999999754046e+00  8.0399999999862803e+00  8.0399999999862342e+00  8.0399999999861524e+00  8.0499999999831537e+00  8.0399999999862839e+00  8.0399999999862644e+00  8.0399999999862093e+00  8.0499999999831555e+00  8.0499999999831768e+00  8.0499999999832124e+00  8.0499999999831893e+00  8.0499999999832408e+00  8.0499999999832461e+00  8.0199999999927893e+00  8.0199999999927432e+00  8.0199999999926721e+00  8.0299999999892933e+00  8.0199999999928000e+00  8.0199999999927911e+00  8.0199999999927236e+00  8.0299999999893164e+00  8.0299999999893519e+00  8.0299999999893323e+00  8.0299999999893892e+00  8.0000000000000000e+00  8.0000000000000000e+00  8.0000000000000000e+00  8.0099999999961859e+00  8.0099999999961966e+00  8.0000000000000000e+00  7.9999999999999982e+00  8.0000000000000000e+00  8.0099999999962073e+00  8.0099999999962535e+00  8.0099999999962801e+00  8.0099999999962197e+00  8.0599999999804428e+00  8.0599999999803913e+00  8.0699999999777532e+00  8.0599999999805014e+00  8.0599999999804499e+00  8.0699999999777656e+00  8.0699999999777621e+00  8.0799999999753389e+00  8.0799999999754011e+00  8.0799999999754526e+00  8.0699999999778154e+00  8.0799999999754029e+00  8.0799999999754490e+00  8.0799999999753780e+00  8.0399999999861489e+00  8.0399999999862075e+00  8.0499999999831466e+00  8.0399999999862057e+00  8.0399999999862679e+00  8.0399999999862146e+00  8.0499999999831751e+00  8.0499999999831697e+00  8.0499999999832283e+00  8.0199999999927751e+00  8.0199999999927201e+00  8.0199999999926614e+00  8.0299999999892897e+00  8.0199999999927822e+00  8.0199999999927307e+00  8.0299999999893146e+00  8.0299999999893021e+00  8.0299999999893554e+00  8.0299999999893643e+00  8.0099999999961806e+00  8.0099999999962037e+00  8.0000000000000018e+00  8.0000000000000018e+00  8.0099999999962694e+00  8.0099999999962002e+00  8.0599999999803718e+00  8.0699999999777390e+00  8.0599999999804268e+00  8.0599999999804872e+00  8.0599999999804322e+00  8.0699999999777621e+00  8.0699999999777532e+00  8.0799999999753194e+00  8.0799999999753798e+00  8.0799999999754348e+00  8.0699999999778029e+00  8.0799999999753780e+00  8.0799999999753727e+00  8.0499999999831182e+00  8.0399999999861294e+00  8.0399999999861809e+00  8.0399999999862413e+00  8.0399999999861933e+00  8.0499999999831520e+00  8.0499999999831555e+00  8.0499999999832053e+00  8.0199999999927165e+00  8.0199999999926543e+00  8.0299999999892666e+00  8.0199999999927751e+00  8.0199999999927112e+00  8.0299999999892950e+00  8.0299999999892915e+00  8.0299999999893483e+00  8.0099999999961700e+00  8.0099999999962037e+00  7.9999999999999991e+00  8.0000000000000000e+00  8.0099999999962570e+00  8.0099999999962073e+00  8.0699999999777070e+00  8.0599999999803646e+00  8.0599999999804162e+00  8.0599999999804712e+00  8.0599999999804197e+00  8.0699999999777496e+00  8.0699999999777443e+00  8.0799999999753229e+00  8.0799999999753709e+00  8.0799999999754348e+00  8.0699999999777923e+00  8.0799999999753638e+00  8.0499999999831129e+00  8.0399999999861187e+00  8.0399999999861809e+00  8.0399999999862359e+00  8.0399999999861702e+00  8.0499999999831413e+00  8.0499999999831413e+00  8.0499999999831910e+00  8.0299999999892400e+00  8.0199999999926472e+00  8.0199999999927112e+00  8.0199999999927680e+00  8.0199999999927005e+00  8.0299999999892737e+00  8.0299999999892826e+00  8.0299999999893412e+00  8.0000000000000018e+00  7.9999999999999991e+00  8.0000000000000000e+00  8.0099999999961700e+00  8.0000000000000000e+00  8.0000000000000000e+00  8.0099999999962002e+00  8.0099999999961913e+00  8.0099999999962499e+00  8.0099999999962623e+00  8.0599999999803540e+00  8.0699999999777159e+00  8.0599999999803860e+00  8.0599999999804481e+00  8.0599999999804037e+00  8.0699999999777337e+00  8.0499999999831218e+00  8.0399999999861187e+00  8.0399999999861631e+00  8.0399999999862253e+00  8.0499999999831306e+00  8.0499999999831768e+00  8.0499999999831289e+00  8.0299999999892613e+00  8.0199999999926437e+00  8.0199999999927023e+00  8.0299999999892844e+00  8.0099999999961646e+00  8.0099999999962037e+00  8.0000000000000000e+00  7.9999999999999991e+00  8.0000000000000000e+00  8.0099999999961842e+00  8.0699999999777337e+00  8.0599999999803824e+00  8.0599999999804552e+00  8.0599999999804961e+00  8.0699999999777496e+00  8.0599999999804215e+00  8.0599999999804872e+00  8.0599999999804304e+00  8.0799999999753993e+00  8.0799999999754633e+00  8.0699999999777567e+00  8.0699999999777976e+00  8.0699999999777585e+00  8.0799999999753407e+00  8.0799999999753993e+00  8.0799999999754490e+00  8.0699999999778047e+00  8.0799999999753922e+00  8.0499999999831431e+00  8.0399999999861418e+00  8.0399999999862199e+00  8.0399999999862697e+00  8.0499999999831573e+00  8.0399999999861773e+00  8.0399999999862359e+00  8.0399999999861880e+00  8.0499999999831555e+00  8.0499999999831982e+00  8.0499999999831786e+00  8.0499999999832283e+00  8.0299999999892808e+00  8.0199999999926579e+00  8.0199999999927396e+00  8.0199999999927929e+00  8.0299999999892933e+00  8.0199999999927094e+00  8.0199999999927680e+00  8.0199999999927272e+00  8.0299999999893021e+00  8.0299999999893430e+00  8.0299999999893217e+00  8.0299999999893767e+00  8.0099999999961824e+00  8.0000000000000000e+00  8.0000000000000000e+00  8.0000000000000000e+00  8.0099999999962019e+00  8.0000000000000018e+00  8.0000000000000000e+00  7.9999999999999982e+00  8.0099999999962055e+00  8.0099999999962481e+00  8.0099999999962197e+00  8.0099999999962730e+00  8.0699999999777248e+00  8.0599999999803806e+00  8.0599999999804393e+00  8.0599999999804925e+00  8.0599999999804339e+00  8.0699999999777532e+00  8.0699999999777585e+00  8.0799999999753354e+00  8.0799999999753798e+00  8.0799999999754419e+00  8.0699999999778047e+00  8.0799999999753904e+00  8.0499999999831324e+00  8.0399999999861453e+00  8.0399999999861933e+00  8.0399999999862573e+00  8.0399999999862004e+00  8.0499999999831537e+00  8.0499999999831555e+00  8.0499999999832159e+00  8.0299999999892684e+00  8.0199999999926579e+00  8.0199999999927165e+00  8.0199999999927716e+00  8.0199999999927147e+00  8.0299999999893057e+00  8.0299999999892968e+00  8.0299999999893537e+00  8.0099999999961735e+00  7.9999999999999991e+00  8.0000000000000000e+00  8.0000000000000018e+00  8.0000000000000000e+00  8.0099999999962055e+00  8.0099999999962002e+00  8.0099999999962570e+00  8.0699999999777177e+00  8.0599999999803718e+00  8.0599999999804144e+00  8.0599999999804730e+00  8.0599999999804233e+00  8.0699999999777408e+00  8.0699999999777425e+00  8.0799999999753247e+00  8.0799999999753620e+00  8.0799999999754260e+00  8.0699999999777940e+00  8.0799999999753673e+00  8.0499999999831129e+00  8.0399999999861258e+00  8.0399999999861773e+00  8.0399999999862377e+00  8.0399999999861844e+00  8.0499999999831537e+00  8.0499999999831431e+00  8.0499999999831982e+00  8.0299999999892471e+00  8.0199999999926455e+00  8.0199999999927059e+00  8.0199999999927627e+00  8.0199999999927076e+00  8.0299999999892862e+00  8.0299999999892808e+00  8.0299999999893430e+00  8.0099999999961611e+00  8.0000000000000000e+00  8.0000000000000000e+00  8.0000000000000018e+00  8.0000000000000000e+00  8.0099999999961984e+00  8.0099999999961984e+00  8.0099999999962535e+00  8.0699999999777035e+00  8.0599999999803487e+00  8.0599999999804108e+00  8.0599999999804535e+00  8.0599999999804055e+00  8.0699999999777301e+00  8.0699999999777283e+00  8.0799999999753087e+00  8.0799999999753567e+00  8.0799999999754064e+00  8.0699999999777763e+00  8.0799999999753567e+00  8.0499999999830987e+00  8.0399999999861151e+00  8.0399999999861791e+00  8.0399999999862377e+00  8.0399999999861773e+00  8.0499999999831324e+00  8.0499999999831253e+00  8.0499999999831875e+00  8.0299999999892417e+00  8.0199999999926490e+00  8.0199999999927094e+00  8.0199999999927680e+00  8.0199999999927076e+00  8.0299999999892808e+00  8.0299999999892737e+00  8.0299999999893412e+00  8.0099999999961611e+00  8.0000000000000000e+00  8.0000000000000018e+00  8.0000000000000000e+00  7.9999999999999991e+00  8.0099999999961948e+00  8.0099999999961966e+00  8.0099999999962588e+00  8.0699999999776928e+00  8.0599999999803380e+00  8.0599999999803771e+00  8.0599999999804357e+00  8.0599999999803860e+00  8.0699999999777052e+00  8.0799999999752927e+00  8.0499999999830916e+00  8.0399999999861027e+00  8.0399999999861524e+00  8.0399999999862057e+00  8.0399999999861560e+00  8.0499999999831164e+00  8.0499999999831111e+00  8.0499999999831520e+00  8.0299999999892417e+00  8.0199999999926490e+00  8.0199999999927005e+00  8.0199999999927574e+00  8.0299999999892613e+00  8.0299999999893306e+00  8.0099999999961700e+00  8.0000000000000000e+00  8.0000000000000000e+00  8.0000000000000000e+00  8.0099999999961913e+00  8.0099999999962392e+00  8.0699999999777248e+00  8.0599999999803629e+00  8.0599999999804357e+00  8.0599999999804783e+00  8.0699999999777408e+00  8.0599999999804144e+00  8.0599999999804659e+00  8.0599999999804108e+00  8.0799999999753886e+00  8.0799999999754366e+00  8.0699999999777443e+00  8.0699999999777816e+00  8.0699999999777514e+00  8.0799999999753265e+00  8.0799999999753727e+00  8.0799999999754348e+00  8.0699999999777994e+00  8.0799999999753833e+00  8.0499999999831235e+00  8.0399999999861329e+00  8.0399999999862040e+00  8.0399999999862679e+00  8.0499999999831413e+00  8.0399999999861720e+00  8.0399999999862342e+00  8.0399999999861862e+00  8.0499999999831431e+00  8.0499999999831875e+00  8.0499999999831608e+00  8.0499999999832141e+00  8.0299999999892808e+00  8.0199999999926632e+00  8.0199999999927307e+00  8.0199999999927858e+00  8.0299999999892968e+00  8.0199999999927041e+00  8.0199999999927698e+00  8.0199999999927147e+00  8.0299999999893004e+00  8.0299999999893430e+00  8.0299999999893164e+00  8.0299999999893732e+00  8.0099999999961842e+00  8.0000000000000000e+00  8.0000000000000000e+00  7.9999999999999991e+00  8.0099999999962002e+00  8.0000000000000018e+00  8.0000000000000000e+00  8.0000000000000000e+00  8.0099999999961984e+00  8.0099999999962446e+00  8.0099999999962144e+00  8.0099999999962730e+00  8.0699999999777123e+00  8.0599999999803629e+00  8.0599999999804179e+00  8.0599999999804766e+00  8.0599999999804179e+00  8.0699999999777408e+00  8.0699999999777408e+00  8.0799999999753176e+00  8.0799999999753549e+00  8.0799999999754153e+00  8.0699999999777869e+00  8.0799999999753602e+00  8.0499999999831147e+00  8.0399999999861311e+00  8.0399999999861897e+00  8.0399999999862377e+00  8.0399999999861791e+00  8.0499999999831449e+00  8.0499999999831520e+00  8.0499999999832070e+00  8.0299999999892684e+00  8.0199999999926597e+00  8.0199999999927059e+00  8.0199999999927680e+00  8.0199999999927147e+00  8.0299999999892950e+00  8.0299999999892879e+00  8.0299999999893430e+00  8.0099999999961771e+00  7.9999999999999991e+00  8.0000000000000000e+00  8.0000000000000000e+00  8.0000000000000000e+00  8.0099999999962055e+00  8.0099999999961895e+00  8.0099999999962481e+00  8.0699999999776963e+00  8.0599999999803540e+00  8.0599999999804020e+00  8.0599999999804623e+00  8.0599999999804037e+00  8.0699999999777248e+00  8.0699999999777301e+00  8.0799999999753052e+00  8.0799999999753549e+00  8.0799999999754100e+00  8.0699999999777763e+00  8.0799999999753531e+00  8.0499999999831040e+00  8.0399999999861169e+00  8.0399999999861826e+00  8.0399999999862448e+00  8.0399999999861720e+00  8.0499999999831449e+00  8.0499999999831360e+00  8.0499999999831910e+00  8.0299999999892400e+00  8.0199999999926419e+00  8.0199999999927005e+00  8.0199999999927645e+00  8.0199999999926987e+00  8.0299999999892790e+00  8.0299999999892844e+00  8.0299999999893377e+00  8.0099999999961611e+00  7.9999999999999991e+00  8.0000000000000000e+00  8.0000000000000000e+00  8.0000000000000000e+00  8.0099999999961877e+00  8.0099999999961948e+00  8.0099999999962481e+00  8.0699999999776892e+00  8.0599999999803362e+00  8.0599999999803877e+00  8.0599999999804357e+00  8.0599999999803913e+00  8.0699999999777212e+00  8.0699999999777159e+00  8.0799999999752945e+00  8.0799999999753425e+00  8.0799999999753922e+00  8.0699999999777585e+00  8.0799999999753425e+00  8.0499999999831022e+00  8.0399999999861187e+00  8.0399999999861631e+00  8.0399999999862235e+00  8.0399999999861720e+00  8.0499999999831253e+00  8.0499999999831218e+00  8.0499999999831751e+00  8.0299999999892453e+00  8.0199999999926472e+00  8.0199999999927059e+00  8.0199999999927538e+00  8.0199999999927005e+00  8.0299999999892773e+00  8.0299999999892719e+00  8.0299999999893359e+00  8.0099999999961611e+00  7.9999999999999991e+00  8.0000000000000000e+00  8.0000000000000018e+00  8.0000000000000000e+00  8.0099999999961895e+00  8.0099999999961931e+00  8.0099999999962499e+00  8.0699999999776804e+00  8.0499999999830862e+00  8.0399999999861027e+00  8.0499999999831164e+00  8.0299999999892524e+00  8.0199999999926348e+00  8.0299999999892790e+00  8.0099999999961522e+00  8.0000000000000000e+00  8.0000000000000000e+00  8.0000000000000000e+00  8.0000000000000000e+00  8.0099999999961877e+00  8.0699999999776999e+00  8.0599999999803522e+00  8.0599999999804250e+00  8.0599999999804801e+00  8.0699999999777212e+00  8.0599999999803966e+00  8.0599999999804641e+00  8.0599999999804091e+00  8.0799999999753602e+00  8.0799999999754206e+00  8.0699999999777390e+00  8.0699999999777727e+00  8.0699999999777354e+00  8.0799999999753105e+00  8.0799999999753567e+00  8.0799999999754224e+00  8.0699999999777958e+00  8.0799999999753673e+00  8.0499999999831218e+00  8.0399999999861347e+00  8.0399999999862075e+00  8.0399999999862448e+00  8.0499999999831324e+00  8.0399999999861667e+00  8.0399999999862324e+00  8.0399999999861755e+00  8.0499999999831378e+00  8.0499999999831857e+00  8.0499999999831520e+00  8.0499999999832106e+00  8.0299999999892755e+00  8.0199999999926526e+00  8.0199999999927254e+00  8.0199999999927734e+00  8.0299999999892915e+00  8.0199999999926987e+00  8.0199999999927645e+00  8.0199999999927041e+00  8.0299999999892773e+00  8.0299999999893306e+00  8.0299999999893128e+00  8.0299999999893608e+00  8.0099999999961717e+00  8.0000000000000000e+00  8.0000000000000000e+00  8.0000000000000000e+00  8.0099999999961931e+00  8.0000000000000018e+00  8.0000000000000000e+00  8.0000000000000000e+00  8.0099999999961966e+00  8.0099999999962339e+00  8.0099999999962126e+00  8.0099999999962623e+00  8.0699999999776910e+00  8.0599999999803540e+00  8.0599999999804162e+00  8.0599999999804677e+00  8.0599999999804179e+00  8.0699999999777248e+00  8.0699999999777337e+00  8.0799999999753052e+00  8.0799999999753531e+00  8.0799999999754206e+00  8.0699999999777905e+00  8.0799999999753442e+00  8.0499999999831093e+00  8.0399999999861276e+00  8.0399999999861755e+00  8.0399999999862413e+00  8.0399999999861826e+00  8.0499999999831413e+00  8.0499999999831449e+00  8.0499999999831928e+00  8.0299999999892613e+00  8.0199999999926508e+00  8.0199999999926987e+00  8.0199999999927574e+00  8.0199999999927059e+00  8.0299999999892879e+00  8.0299999999892826e+00  8.0299999999893394e+00  8.0099999999961629e+00  7.9999999999999991e+00  8.0000000000000000e+00  7.9999999999999991e+00  7.9999999999999991e+00  8.0099999999961931e+00  8.0099999999961877e+00  8.0099999999962463e+00  8.0699999999776892e+00  8.0599999999803469e+00  8.0599999999804002e+00  8.0599999999804517e+00  8.0599999999804108e+00  8.0699999999777230e+00  8.0699999999777159e+00  8.0799999999752909e+00  8.0799999999753442e+00  8.0799999999754011e+00  8.0699999999777656e+00  8.0799999999753354e+00  8.0499999999830933e+00  8.0399999999861063e+00  8.0399999999861667e+00  8.0399999999862271e+00  8.0399999999861667e+00  8.0499999999831182e+00  8.0499999999831271e+00  8.0499999999831768e+00  8.0299999999892400e+00  8.0199999999926348e+00  8.0199999999926916e+00  8.0199999999927520e+00  8.0199999999926916e+00  8.0299999999892737e+00  8.0299999999892719e+00  8.0299999999893306e+00  8.0099999999961558e+00  7.9999999999999991e+00  8.0000000000000000e+00  8.0000000000000000e+00  7.9999999999999991e+00  8.0099999999961913e+00  8.0099999999961859e+00  8.0099999999962446e+00  8.0699999999776804e+00  8.0599999999803345e+00  8.0599999999803895e+00  8.0599999999804357e+00  8.0599999999803913e+00  8.0699999999776999e+00  8.0699999999776999e+00  8.0799999999752838e+00  8.0799999999753318e+00  8.0799999999753904e+00  8.0699999999777585e+00  8.0799999999753211e+00  8.0499999999830809e+00  8.0399999999860992e+00  8.0399999999861560e+00  8.0399999999862111e+00  8.0399999999861578e+00  8.0499999999831129e+00  8.0499999999831129e+00  8.0499999999831644e+00  8.0299999999892364e+00  8.0199999999926295e+00  8.0199999999926863e+00  8.0199999999927414e+00  8.0199999999926881e+00  8.0299999999892666e+00  8.0299999999892702e+00  8.0299999999893270e+00  8.0099999999961558e+00  7.9999999999999991e+00  8.0000000000000000e+00  8.0000000000000000e+00  7.9999999999999991e+00  8.0099999999961842e+00  8.0099999999961806e+00  8.0099999999962446e+00  8.0699999999776768e+00  8.0599999999803149e+00  8.0699999999776733e+00  8.0799999999752679e+00  8.0799999999753194e+00  8.0799999999753780e+00  8.0499999999830756e+00  8.0399999999860778e+00  8.0299999999892471e+00  8.0199999999926241e+00  8.0299999999892595e+00  8.0099999999961558e+00  8.0000000000000000e+00  8.0099999999961806e+00  8.0699999999776999e+00  8.0599999999803469e+00  8.0599999999804179e+00  8.0599999999804606e+00  8.0699999999777212e+00  8.0599999999803895e+00  8.0599999999804535e+00  8.0599999999803842e+00  8.0799999999753442e+00  8.0799999999754064e+00  8.0699999999777070e+00  8.0699999999777656e+00  8.0699999999777337e+00  8.0799999999752927e+00  8.0799999999753354e+00  8.0799999999754135e+00  8.0699999999777763e+00  8.0799999999753513e+00  8.0499999999831040e+00  8.0399999999861134e+00  8.0399999999861897e+00  8.0399999999862359e+00  8.0499999999831182e+00  8.0399999999861560e+00  8.0399999999862253e+00  8.0399999999861560e+00  8.0499999999831129e+00  8.0499999999831733e+00  8.0499999999831413e+00  8.0499999999831893e+00  8.0299999999892524e+00  8.0199999999926401e+00  8.0199999999927076e+00  8.0199999999927609e+00  8.0299999999892773e+00  8.0199999999926899e+00  8.0199999999927432e+00  8.0199999999926774e+00  8.0299999999892577e+00  8.0299999999893181e+00  8.0299999999892950e+00  8.0299999999893323e+00  8.0099999999961629e+00  8.0000000000000000e+00  8.0000000000000000e+00  8.0000000000000000e+00  8.0099999999961859e+00  8.0000000000000000e+00  8.0000000000000000e+00  8.0000000000000000e+00  8.0099999999961682e+00  8.0099999999962286e+00  8.0099999999961931e+00  8.0099999999962392e+00  8.0699999999776946e+00  8