<?xml version="1.0"?>
<VTKFile type="UnstructuredGrid"  version="0.1"  >
<UnstructuredGrid>
<Piece  NumberOfPoints="2061" NumberOfCells="9579">
<Points>
<DataArray  type="Float64"  NumberOfComponents="3"  format="ascii">4 1 2.5  4 1.25 2.5  4 1.25 2.25  3.75 1.25 2.25  4 1.5 2.5  3.5 1 2.5  3.75 1.25 2.5  3.75 1 2.5  3.5 1.25 2.5  3.5 1.5 2.5  3.75 1.5 2.5  3.75 1.5 2.25  4.25 1.25 2.5  4.25 1.25 2.25  3.5 1.75 2.5  3.5 1.75 2.25  3.25 1.75 2.25  3.5 2 2.5  3 1.5 2.5  3.25 1.75 2.5  3.25 1.5 2.5  3 1.75 2.5  3 2 2.5  3.25 2 2.5  4 1.75 2.5  4 1.75 2.25  3.75 1.75 2.25  4 2 2.5  3.75 1.75 2.5  3.75 2 2.5  3.75 2 2.25  4.25 1.75 2.5  4.25 1.5 2.5  4.25 1.75 2.25  4.5 1.5 2.5  4.5 1.75 2.5  4.5 2 2.5  4.25 2 2.5  3.75 2.25 2.5  3.75 2.25 2.25  3.5 2.25 2.5  3.5 2.5 2.5  3.5 0.5 2.5  3.5 0.5 2.75  3.5 0.25 2.75  3.25 0.25 2.75  3.5 0.5 3  3.5 0 2.5  3.5 0 2.75  3.25 0 2.75  3.5 0 3  3.5 0.25 3  3 0 3  3.25 0.25 3  3.25 0 3  3 0 2.75  3 0.5 2.5  3.25 0.5 2.75  3.25 0.5 2.5  3 0.25 3  3 0.25 2.75  3 0.5 3  3.25 0.5 3  3 0.5 2.75  4 0.5 2.5  4 0.5 2.75  4 0.25 2.75  3.75 0.25 2.75  4 0.5 3  4 0 3  4 0.25 3  3.75 0 2.75  3.75 0.25 3  3.75 0 3  3.75 0.5 2.75  3.75 0.5 2.5  3.75 0.5 3  4.5 0.5 2.5  4.5 0.5 2.75  4.5 0.25 2.75  4.25 0.25 2.75  4.5 0.5 3  4.5 0 3  4.5 0.25 3  4.25 0.25 3  4.25 0 3  4.25 0.5 2.75  4.25 0.5 3  5 0 2.5  5 0.25 2.75  5 0 2.75  4.75 0.25 2.75  4.75 0 2.75  5 0 3  5 0.25 3  5 0.5 3  4.75 0.25 3  4.75 0 3  4.75 0.5 3  4.75 0.5 2.75  3.5 1 2.75  3.5 0.75 2.75  3.25 0.75 2.75  3.5 1 3  3.5 0.75 3  3.25 0.75 3  3.25 1 2.75  3 0.75 2.75  3 0.75 3  3 1 3  3.25 1 3  3 0.75 2.5  3 1 2.5  3 1 2.75  4 0.75 2.75  4 0.75 2.5  3.75 0.75 2.75  4 1 2.75  4 1 3  4 0.75 3  3.75 0.75 3  3.75 1 2.75  3.75 1 3  4.5 1 2.5  4.5 1 2.75  4.5 0.75 2.75  4.25 0.75 2.75  4.5 1 3  4.5 0.75 3  4.25 0.75 3  4.25 1 2.75  4.25 1 2.5  4.25 1 3  4.75 0.75 2.75  4.75 0.75 3  5 0.75 3  5 1 3  4.75 1 3  4.75 1 2.75  3.5 1.25 2.75  3.25 1.25 2.75  3.5 1.5 2.75  3.5 1.5 3  3.5 1.25 3  3.25 1.25 3  3.25 1.5 2.75  3 1.25 2.75  3 1.25 3  3 1.5 3  3.25 1.5 3  3 1.25 2.5  3 1.5 2.75  3.75 1.25 2.75  4 1.25 2.75  4 1.5 2.75  4 1.5 3  4 1.25 3  3.75 1.25 3  3.75 1.5 2.75  3.75 1.5 3  4.5 1.5 2.75  4.5 1.25 2.75  4.25 1.25 2.75  4.5 1.5 3  4.5 1.25 3  4.25 1.25 3  4.25 1.5 2.75  4.25 1.5 3  4.75 1.25 2.75  4.75 1.25 3  5 1.25 3  5 1.5 3  4.75 1.5 3  4.75 1.5 2.75  3.25 1.75 2.75  3.5 1.75 2.75  3.5 2 2.75  3.5 2 3  3.5 1.75 3  3.25 1.75 3  3.25 2 2.75  3 1.75 2.75  3 1.75 3  3 2 3  3.25 2 3  3 2 2.75  3.75 1.75 2.75  4 1.75 2.75  4 2 2.75  4 2 3  4 1.75 3  3.75 1.75 3  3.75 2 2.75  3.75 2 3  4.25 1.75 2.75  4.5 1.75 2.75  4.5 2 2.75  4.5 2 3  4.5 1.75 3  4.25 1.75 3  4.25 2 2.75  4.25 2 3  5 2 2.5  5 2 2.75  5 1.75 2.75  4.75 1.75 2.75  5 2 3  5 1.75 3  4.75 1.75 3  4.75 2 2.75  4.75 2 2.5  4.75 2 3  3.5 2.25 2.75  3.25 2.25 2.75  3.5 2.5 2.75  3.5 2.5 3  3.5 2.25 3  3.25 2.25 3  3.75 2.25 2.75  4 2.25 2.75  4 2.25 3  4 2.5 3  3.75 2.25 3  3.75 2.5 3  3.75 2.5 2.75  4.25 2.25 2.75  4.5 2.25 2.75  4.5 2.25 3  4.25 2.25 3  4.75 2.25 2.75  4.75 2.25 2.5  5 2.25 2.75  5 2.25 2.5  5 2.5 2.5  4.75 2.25 3  3.25 0.25 3.25  3.5 0.25 3.25  3.5 0.5 3.25  3.5 0.5 3.5  3.25 0 3.25  3.5 0 3.25  3.5 0 3.5  3.5 0.25 3.5  3 0 3.25  3 0 3.5  3.25 0.25 3.5  3.25 0 3.5  3.25 0.5 3.25  3 0.25 3.25  3 0.25 3.5  3 0.5 3.5  3.25 0.5 3.5  3 0.5 3.25  3.75 0.25 3.25  4 0.25 3.25  4 0.5 3.25  4 0.5 3.5  3.75 0 3.25  4 0 3.25  4 0 3.5  4 0.25 3.5  3.75 0.25 3.5  3.75 0 3.5  3.75 0.5 3.25  3.75 0.5 3.5  4.25 0.25 3.25  4.5 0.25 3.25  4.5 0.5 3.25  4.5 0.5 3.5  4.25 0 3.25  4.5 0 3.25  4.5 0 3.5  4.5 0.25 3.5  4.25 0.25 3.5  4.25 0 3.5  4.25 0.5 3.25  4.25 0.5 3.5  4.75 0.25 3.25  5 0.25 3.25  5 0.5 3.25  5 0.5 3.5  4.75 0 3.25  5 0 3.25  5 0 3.5  5 0.25 3.5  4.75 0.25 3.5  4.75 0 3.5  4.75 0.5 3.25  4.75 0.5 3.5  3.25 0.75 3.25  3.5 0.75 3.25  3.5 1 3.25  3.5 1 3.5  3.5 0.75 3.5  3.25 0.75 3.5  3.25 1 3.25  3 0.75 3.25  3 0.75 3.5  3 1 3.5  3.25 1 3.5  3 1 3.25  3.75 0.75 3.25  4 0.75 3.25  4 1 3.25  4 1 3.5  4 0.75 3.5  3.75 0.75 3.5  3.75 1 3.25  3.75 1 3.5  4.25 0.75 3.25  4.5 0.75 3.25  4.5 1 3.25  4.5 1 3.5  4.5 0.75 3.5  4.25 0.75 3.5  4.25 1 3.25  4.25 1 3.5  4.75 0.75 3.25  5 0.75 3.25  5 1 3.25  5 1 3.5  5 0.75 3.5  4.75 0.75 3.5  4.75 1 3.25  4.75 1 3.5  3.25 1.25 3.25  3.5 1.25 3.25  3.5 1.5 3.25  3.5 1.5 3.5  3.5 1.25 3.5  3.25 1.25 3.5  3.25 1.5 3.25  3 1.25 3.25  3 1.25 3.5  3 1.5 3.5  3.25 1.5 3.5  3 1.5 3.25  3.75 1.25 3.25  4 1.25 3.25  4 1.5 3.25  4 1.5 3.5  4 1.25 3.5  3.75 1.25 3.5  3.75 1.5 3.25  3.75 1.5 3.5  4.25 1.25 3.25  4.5 1.25 3.25  4.5 1.5 3.25  4.5 1.5 3.5  4.5 1.25 3.5  4.25 1.25 3.5  4.25 1.5 3.25  4.25 1.5 3.5  4.75 1.25 3.25  5 1.25 3.25  5 1.5 3.25  5 1.5 3.5  5 1.25 3.5  4.75 1.25 3.5  4.75 1.5 3.25  4.75 1.5 3.5  3.25 1.75 3.25  3.5 1.75 3.25  3.5 2 3.25  3.5 2 3.5  3.5 1.75 3.5  3.25 1.75 3.5  3.25 2 3.25  3 1.75 3.25  3 1.75 3.5  3 2 3.5  3.25 2 3.5  3 2 3.25  3.75 1.75 3.25  4 1.75 3.25  4 2 3.25  4 2 3.5  4 1.75 3.5  3.75 1.75 3.5  3.75 2 3.25  3.75 2 3.5  4.25 1.75 3.25  4.5 1.75 3.25  4.5 2 3.25  4.5 2 3.5  4.5 1.75 3.5  4.25 1.75 3.5  4.25 2 3.25  4.25 2 3.5  4.75 1.75 3.25  5 1.75 3.25  5 2 3.25  5 2 3.5  5 1.75 3.5  4.75 1.75 3.5  4.75 2 3.25  4.75 2 3.5  3.25 2.25 3.25  3.5 2.25 3.25  3.5 2.5 3.25  3.5 2.5 3.5  3.5 2.25 3.5  3.25 2.25 3.5  3 2.25 3.25  3.75 2.25 3.25  4 2.25 3.25  4 2.5 3.25  4 2.5 3.5  4 2.25 3.5  3.75 2.25 3.5  3.75 2.5 3.25  3.75 2.5 3.5  4.25 2.25 3.25  4.5 2.25 3.25  4.5 2.25 3.5  4.5 2.5 3.5  4.25 2.25 3.5  4.25 2.5 3.5  4.75 2.25 3.25  5 2.25 3.25  5 2.25 3.5  5 2.5 3.5  4.75 2.25 3.5  4.75 2.5 3.5  3.25 0.25 3.75  3.5 0.25 3.75  3.5 0.5 3.75  3.5 0.5 4  3.25 0 3.75  3.5 0 3.75  3.5 0 4  3.5 0.25 4  3 0 3.75  3 0 4  3.25 0.25 4  3.25 0 4  3.25 0.5 3.75  3 0.25 3.75  3 0.25 4  3 0.5 4  3.25 0.5 4  3 0.5 3.75  3.75 0.25 3.75  4 0.25 3.75  4 0.5 3.75  4 0.5 4  3.75 0 3.75  4 0 3.75  4 0 4  4 0.25 4  3.75 0.25 4  3.75 0 4  3.75 0.5 3.75  3.75 0.5 4  4.25 0.25 3.75  4.5 0.25 3.75  4.5 0.5 3.75  4.5 0.5 4  4.25 0 3.75  4.5 0 3.75  4.5 0 4  4.5 0.25 4  4.25 0.25 4  4.25 0 4  4.25 0.5 3.75  4.25 0.5 4  4.75 0.25 3.75  5 0.25 3.75  5 0.5 3.75  5 0.5 4  4.75 0 3.75  5 0 3.75  5 0 4  5 0.25 4  4.75 0.25 4  4.75 0 4  4.75 0.5 3.75  4.75 0.5 4  3.25 0.75 3.75  3.5 0.75 3.75  3.5 1 3.75  3.5 1 4  3.5 0.75 4  3.25 0.75 4  3.25 1 3.75  3 0.75 3.75  3 0.75 4  3 1 4  3.25 1 4  3 1 3.75  3.75 0.75 3.75  4 0.75 3.75  4 1 3.75  4 1 4  4 0.75 4  3.75 0.75 4  3.75 1 3.75  3.75 1 4  4.25 0.75 3.75  4.5 0.75 3.75  4.5 1 3.75  4.5 1 4  4.5 0.75 4  4.25 0.75 4  4.25 1 3.75  4.25 1 4  4.75 0.75 3.75  5 0.75 3.75  5 1 3.75  5 1 4  5 0.75 4  4.75 0.75 4  4.75 1 3.75  4.75 1 4  3.25 1.25 3.75  3.5 1.25 3.75  3.5 1.5 3.75  3.5 1.5 4  3.5 1.25 4  3.25 1.25 4  3.25 1.5 3.75  3 1.25 3.75  3 1.25 4  3 1.5 4  3.25 1.5 4  3 1.5 3.75  3.75 1.25 3.75  4 1.25 3.75  4 1.5 3.75  4 1.5 4  4 1.25 4  3.75 1.25 4  3.75 1.5 3.75  3.75 1.5 4  4.25 1.25 3.75  4.5 1.25 3.75  4.5 1.5 3.75  4.5 1.5 4  4.5 1.25 4  4.25 1.25 4  4.25 1.5 3.75  4.25 1.5 4  4.75 1.25 3.75  5 1.25 3.75  5 1.5 3.75  5 1.5 4  5 1.25 4  4.75 1.25 4  4.75 1.5 3.75  4.75 1.5 4  3.25 1.75 3.75  3.5 1.75 3.75  3.5 2 3.75  3.5 2 4  3.5 1.75 4  3.25 1.75 4  3.25 2 3.75  3 1.75 3.75  3 1.75 4  3 2 4  3.25 2 4  3 2 3.75  3.75 1.75 3.75  4 1.75 3.75  4 2 3.75  4 2 4  4 1.75 4  3.75 1.75 4  3.75 2 3.75  3.75 2 4  4.25 1.75 3.75  4.5 1.75 3.75  4.5 2 3.75  4.5 2 4  4.5 1.75 4  4.25 1.75 4  4.25 2 3.75  4.25 2 4  4.75 1.75 3.75  5 1.75 3.75  5 2 3.75  5 2 4  5 1.75 4  4.75 1.75 4  4.75 2 3.75  4.75 2 4  3.25 2.25 3.75  3.75 2.25 3.75  4 2.25 3.75  3.75 2.25 4  4.25 2.25 3.75  4.5 2.25 3.75  4.25 2.25 4  4.75 2.25 3.75  5 2.25 3.75  5 2.5 3.75  5 2.5 4  5 2.25 4  4.75 2.25 4  3.25 0.25 4.25  3.5 0.25 4.25  3.5 0.5 4.25  3.5 0.5 4.5  3.25 0 4.25  3.5 0 4.25  3.5 0 4.5  3.5 0.25 4.5  3 0 4.25  3 0 4.5  3.25 0.25 4.5  3.25 0 4.5  3.25 0.5 4.25  3 0.25 4.25  3 0.25 4.5  3 0.5 4.5  3.25 0.5 4.5  3 0.5 4.25  3.75 0.25 4.25  4 0.25 4.25  4 0.5 4.25  4 0.5 4.5  3.75 0 4.25  4 0 4.25  4 0 4.5  4 0.25 4.5  3.75 0.25 4.5  3.75 0 4.5  3.75 0.5 4.25  3.75 0.5 4.5  4.25 0.25 4.25  4.5 0.25 4.25  4.5 0.5 4.25  4.5 0.5 4.5  4.25 0 4.25  4.5 0 4.25  4.5 0 4.5  4.5 0.25 4.5  4.25 0.25 4.5  4.25 0 4.5  4.25 0.5 4.25  4.25 0.5 4.5  4.75 0.25 4.25  5 0.25 4.25  5 0.5 4.25  5 0.5 4.5  4.75 0 4.25  5 0 4.25  5 0 4.5  5 0.25 4.5  4.75 0.25 4.5  4.75 0 4.5  4.75 0.5 4.25  4.75 0.5 4.5  3.25 0.75 4.25  3.5 0.75 4.25  3.5 1 4.25  3.5 1 4.5  3.5 0.75 4.5  3.25 0.75 4.5  3.25 1 4.25  3 0.75 4.25  3 0.75 4.5  3 1 4.5  3.25 1 4.5  3 1 4.25  3.75 0.75 4.25  4 0.75 4.25  4 1 4.25  4 1 4.5  4 0.75 4.5  3.75 0.75 4.5  3.75 1 4.25  3.75 1 4.5  4.25 0.75 4.25  4.5 0.75 4.25  4.5 1 4.25  4.5 1 4.5  4.5 0.75 4.5  4.25 0.75 4.5  4.25 1 4.25  4.25 1 4.5  4.75 0.75 4.25  5 0.75 4.25  5 1 4.25  5 1 4.5  5 0.75 4.5  4.75 0.75 4.5  4.75 1 4.25  4.75 1 4.5  3.25 1.25 4.25  3.5 1.25 4.25  3.5 1.5 4.25  3.5 1.5 4.5  3.5 1.25 4.5  3.25 1.25 4.5  3.25 1.5 4.25  3 1.25 4.25  3 1.25 4.5  3 1.5 4.5  3.25 1.5 4.5  3 1.5 4.25  3.75 1.25 4.25  4 1.25 4.25  4 1.5 4.25  4 1.5 4.5  4 1.25 4.5  3.75 1.25 4.5  3.75 1.5 4.25  3.75 1.5 4.5  4.25 1.25 4.25  4.5 1.25 4.25  4.5 1.5 4.25  4.5 1.5 4.5  4.5 1.25 4.5  4.25 1.25 4.5  4.25 1.5 4.25  4.25 1.5 4.5  4.75 1.25 4.25  5 1.25 4.25  5 1.5 4.25  5 1.5 4.5  5 1.25 4.5  4.75 1.25 4.5  4.75 1.5 4.25  4.75 1.5 4.5  3.25 1.75 4.25  3.5 1.75 4.25  3.5 2 4.25  3.5 2 4.5  3.5 1.75 4.5  3.25 1.75 4.5  3.25 2 4.25  3 1.75 4.25  3 1.75 4.5  3 2 4.5  3.25 2 4.5  3 2 4.25  3.75 1.75 4.25  4 1.75 4.25  4 2 4.25  4 2 4.5  4 1.75 4.5  3.75 1.75 4.5  3.75 2 4.25  3.75 2 4.5  4.25 1.75 4.25  4.5 1.75 4.25  4.5 2 4.25  4.5 2 4.5  4.5 1.75 4.5  4.25 1.75 4.5  4.25 2 4.25  4.25 2 4.5  4.75 1.75 4.25  5 1.75 4.25  5 2 4.25  5 2 4.5  5 1.75 4.5  4.75 1.75 4.5  4.75 2 4.25  4.75 2 4.5  3.25 2.25 4.25  3.5 2.25 4.25  3.25 2.25 4.5  3 2.25 4.25  3 2.25 4.5  3 2.5 4.5  3.75 2.25 4.25  4 2.25 4.25  4.25 2.25 4.25  4.5 2.25 4.25
[...]
<PointData  Vectors="u"> 
<DataArray  type="Float64"  Name="u"  NumberOfComponents="3" format="ascii">1.9999999993893263e+02 3.9036513201649607e-10 2.9466203893285019e-10  1.9999999993862320e+02 -2.7103948478872638e-11 -1.7676243517515018e-10  1.9999999993776837e+02 -4.2171009375966267e-10 -4.5811223991154486e-10  1.9999999994194476e+02 -3.3006610119453155e-10 -2.4443479678973731e-10  1.9999999993904146e+02 3.4900482015712833e-10 3.9332511359250321e-10  1.9999999994612892e+02 6.8932286251166535e-10 4.9848670343241344e-10  1.9999999994186251e+02 -5.4317884085066198e-10 -8.1399684572935677e-10  1.9999999994222748e+02 -7.9616895619518086e-11 -2.2076615807181558e-10  1.9999999994608174e+02 -7.2119268243166294e-11 -5.2311858988613732e-10  1.9999999994602459e+02 4.0773488039065230e-10 5.3645388820545648e-10  1.9999999994205879e+02 -2.2987563230917654e-10 -8.4410754515554151e-11  1.9999999994206789e+02 -1.0379793332813768e-09 -4.4478576327514208e-10  1.9999999993423992e+02 -4.1182607607505713e-10 -1.0438767464779108e-09  1.9999999993438578e+02 -2.8476431111634701e-10 -2.6862904235345979e-10  1.9999999994601683e+02 -2.8089318849130062e-10 -3.2509686556180627e-10  1.9999999994602737e+02 -7.2990351051229359e-10 -9.2688550742999559e-10  1.9999999994967681e+02 -2.8321600930251685e-10 -3.4467985127806601e-10  1.9999999994603400e+02 5.6021247076984336e-10 4.3663331958110010e-10  1.9999999995312490e+02 3.7556967272739559e-10 5.4235226881260175e-10  1.9999999994990372e+02 -6.7085347242192648e-10 -8.5180793280589896e-10  1.9999999994971014e+02 -5.7018700097508315e-11 -4.1963115109333565e-11  1.9999999995390678e+02 -3.5300717537681668e-10 -3.3256381221075615e-10  1.9999999995318245e+02 5.2368962478536831e-10 3.9558286689421696e-10  1.9999999994946577e+02 1.1801552385221932e-10 -1.1180765170662375e-10  1.9999999993855445e+02 -3.4427876016369075e-10 -6.4487915558571706e-11  1.9999999993769353e+02 -5.5141616998778466e-10 -5.1083283376358915e-10  1.9999999994194980e+02 -1.9172519342806853e-10 -4.4061164747356443e-10  1.9999999993886667e+02 4.3065635472097320e-10 3.7546715171626827e-10  1.9999999994193465e+02 -4.4744305047166691e-10 -7.4739950196143742e-10  1.9999999994223313e+02 -9.8684032070533681e-11 -8.7889361925946578e-11  1.9999999994187519e+02 -7.4301896864769840e-10 -5.3026561809376062e-10  1.9999999993432291e+02 -4.7981777666434821e-10 -8.3407981552145174e-10  1.9999999993457575e+02 -2.5582745580202933e-10 -2.3509222263923465e-10  1.9999999993435677e+02 -3.2402405761685194e-10 -3.4603576789068277e-10  1.9999999993103506e+02 4.3906152835486305e-10 2.5739215916041786e-10  1.9999999993076710e+02 -3.5112274996416956e-10 -5.4297348417304072e-11  1.9999999993111308e+02 6.5577036582902910e-11 2.4787523985538383e-10  1.9999999993454296e+02 -2.2041503109070649e-10 -2.2160338520863762e-10  1.9999999994202656e+02 -3.6080678246810439e-10 -9.3061139981073031e-10  1.9999999994192586e+02 -2.1814713810389125e-10 -4.2170055376347204e-10  1.9999999994588077e+02 -1.6624682469823540e-10 -3.4316110235816963e-10  1.9999999994588191e+02 6.6907749683370643e-10 6.0946422711302128e-10  1.9999999994596519e+02 1.7939351053567946e-10 6.3884872761303184e-10  1.9999999994593119e+02 1.3505399126025982e-10 -6.1208653986218757e-10  1.9999999994591209e+02 1.2736449218318806e-11 -1.0654207768851029e-09  1.9999999995000096e+02 -6.4201432853006665e-10 -4.6946130622664564e-10  1.9999999994584903e+02 2.1556488653642455e-10 6.6091975802153865e-10  1.9999999994598315e+02 2.4169358432504056e-09 6.0943447485904999e-10  1.9999999994603007e+02 9.8796525289099664e-11 -1.8219345546032757e-10  1.9999999995009367e+02 -1.5485407655679134e-09 -4.1034253942657927e-10  1.9999999994583854e+02 2.1017253405088181e-09 4.2065901191376502e-10  1.9999999994598679e+02 -4.6388310913705463e-10 -3.2949436577252830e-10  1.9999999995324666e+02 2.6811988083215356e-09 4.3292524964691941e-10  1.9999999995013221e+02 -6.4971804119009686e-10 -8.6128150010310228e-10  1.9999999994995164e+02 -7.7346802410441332e-11 -2.1952926711565767e-10  1.9999999995426799e+02 1.5484861202547935e-10 -3.8710130090400138e-10  1.9999999995316358e+02 5.3799843148826712e-10 4.6939501487234801e-10  1.9999999994987428e+02 -5.5679472259644470e-10 -9.2020865548943178e-10  1.9999999994965501e+02 -9.3640625995244188e-11 -2.4721285942483608e-10  1.9999999995377166e+02 -2.7766682760686637e-10 -1.7824447587498227e-10  1.9999999995389874e+02 -1.0799621212783826e-09 -6.8334742407251736e-10  1.9999999995322278e+02 3.7577044484840845e-10 4.9387514915232057e-10  1.9999999994952401e+02 -7.7936134710020956e-11 -2.3100843771160826e-10  1.9999999995401359e+02 -3.9346202969327915e-10 -2.5343144540327826e-10  1.9999999993891663e+02 1.2970333939111482e-10 3.9511457350497088e-10  1.9999999993805372e+02 1.0115870535507622e-11 -3.6067314990220500e-10  1.9999999993743549e+02 -2.7221995316053594e-10 -6.1778356202643611e-10  1.9999999994195750e+02 -5.7307696923197086e-10 -5.6111279610212147e-10  1.9999999993889844e+02 8.3720008108552981e-11 5.8672542043868755e-10  1.9999999993883341e+02 2.0312728100799161e-09 3.8368600449514415e-10  1.9999999993845253e+02 -2.0220622689484243e-10 -9.6713487375646560e-11  1.9999999994204728e+02 -1.5126320295732155e-09 -5.1621312303808577e-10  1.9999999994183079e+02 -3.7214189838188449e-10 -9.0418670094054834e-10  1.9999999994206871e+02 1.6683716546518430e-10 -3.9669588864780271e-10  1.9999999994143758e+02 -1.6226576997243156e-11 -1.0564433746265728e-09  1.9999999994221025e+02 -2.7968721019864044e-11 -5.4550250470784779e-10  1.9999999994232249e+02 1.8570748392484939e-10 -4.2598312857670206e-10  1.9999999993127219e+02 1.9739340984014323e-10 3.7285145429945643e-10  1.9999999993049920e+02 1.0971272607583314e-10 -3.5282148807974182e-10  1.9999999993022240e+02 -1.8351471011593612e-10 -6.7768462119245301e-10  1.9999999993443774e+02 -3.0557063616722375e-10 -4.9826362841194085e-10  1.9999999993132727e+02 1.5484320596718340e-10 4.6662722546439090e-10  1.9999999993113866e+02 2.2100095856969559e-09 5.2473911048752676e-10  1.9999999993084944e+02 -3.0922609009955117e-10 5.6890206782914022e-11  1.9999999993419129e+02 -3.7555634050240425e-10 -7.4745535097371378e-10  1.9999999993446485e+02 -9.6767680416747449e-12 -2.5203469457115678e-10  1.9999999993403446e+02 -1.5095883747630575e-11 -1.1635569105801693e-09  1.9999999993462606e+02 1.9096622566074725e-10 -2.6832403274921999e-10  1.9999999992311319e+02 9.1110877429441400e-10 1.2182114110605937e-10  1.9999999992177402e+02 -1.4943075621911122e-10 1.5955603434495323e-11  1.9999999992246026e+02 -1.8579533376913177e-10 -9.6604675947715935e-11  1.9999999992703061e+02 -1.4064620273598823e-10 -6.3295800453006562e-10  1.9999999992726589e+02 -1.4706924020542579e-09 -3.4813079317011487e-10  1.9999999992310515e+02 9.0390260695242136e-10 1.1599169484030949e-10  1.9999999992242235e+02 -8.5757106684977583e-11 3.9076686330956497e-11  1.9999999992340989e+02 1.6104396988063466e-10 1.5650258989422406e-10  1.9999999992708086e+02 -1.1126638197989972e-10 -9.2083690809359734e-10  1.9999999992737523e+02 4.1820148694715811e-11 -3.8166589638683209e-10  1.9999999992743838e+02 1.0501081222354534e-10 -3.6127523272601410e-10  1.9999999992682359e+02 -2.4253320995314330e-11 -9.4414333900415995e-10  1.9999999994601384e+02 -2.9659459656753058e-10 -1.2678940130073880e-10  1.9999999994606725e+02 -7.6083652900056779e-10 -1.0024867277341422e-09  1.9999999994959924e+02 -4.0379752859078636e-10 -3.0825974174217680e-10  1.9999999994602339e+02 5.5844896334787838e-10 4.2716197085833434e-10  1.9999999994584323e+02 2.1799456093834231e-12 -4.2581585534816691e-10  1.9999999994996227e+02 -5.8049020979042897e-10 -9.1125689386613498e-10  1.9999999994983710e+02 -8.2754137766741836e-10 -5.9558270319300005e-10  1.9999999995368259e+02 -5.6809034635271165e-10 -7.5252842186545335e-10  1.9999999995396806e+02 -1.9145686843569010e-10 -5.0148889652836118e-10  1.9999999995313490e+02 6.0181278675643429e-10 3.0307403110421868e-10  1.9999999994964557e+02 -1.1778674098972095e-10 5.3866573086444361e-12  1.9999999995398917e+02 -2.1280771841419790e-10 -4.0341020376143821e-10  1.9999999995321809e+02 5.5420672994740445e-10 5.5129795556957438e-10  1.9999999995384204e+02 -1.4870955038705221e-10 -3.2902725067988399e-10  1.9999999993763893e+02 -1.6451084020936973e-10 -7.5599276936491919e-10  1.9999999993846373e+02 2.3745544507941332e-10 -1.4051094088222526e-10  1.9999999994191228e+02 -2.4640821241598505e-10 -3.9385666317568589e-10  1.9999999993851964e+02 -1.4791920054092305e-11 -2.2560519056368420e-10  1.9999999993896256e+02 4.7394276509179899e-10 4.0598184671998961e-10  1.9999999993844884e+02 2.2762689109874108e-10 -1.3006550996446267e-10  1.9999999994190981e+02 -3.1893834258324383e-10 -9.7544781000367655e-10  1.9999999994193226e+02 -7.5169564327226489e-10 -6.9205177771219996e-10  1.9999999994203031e+02 -1.1909977852323939e-11 -1.3355952561454040e-10  1.9999999993103768e+02 3.3998708178506460e-10 3.5590328040035708e-10  1.9999999993088994e+02 -4.1012599865860777e-11 -4.4621769655483486e-11  1.9999999992997709e+02 -1.7679324236332095e-10 -6.3190316794721867e-10  1.9999999993455930e+02 -2.2663966336323724e-10 -4.5420968541953212e-10  1.9999999993106508e+02 4.0283828438911428e-10 3.1086940714422660e-10  1.9999999993074272e+02 1.2122005128498547e-10 -1.6199066217172640e-10  1.9999999993432036e+02 -1.4124009889366162e-10 -9.8284229336363934e-10  1.9999999993427690e+02 -7.1638462127593774e-10 -5.3616266558971466e-10  1.9999999993469396e+02 -3.4916870010958337e-11 -3.5502395792110807e-10  1.9999999993469547e+02 2.1610927851184162e-11 -1.6295611355500676e-10  1.9999999992709380e+02 -3.8512734221788353e-10 -4.4566429542067164e-10  1.9999999992711966e+02 -3.0290045555073434e-10 -9.4964996509068264e-10  1.9999999992223931e+02 2.0481439419613345e-11 -5.4788501159423605e-12  1.9999999992326860e+02 1.4954007452754960e-10 1.5925544390231460e-10  1.9999999992714442e+02 -3.8190407010811188e-11 1.8575342881238441e-12  1.9999999992688410e+02 -8.4129928522912345e-10 -6.3371887490162260e-10  1.9999999994641988e+02 -8.0673752127546521e-10 -8.7709601991966334e-10  1.9999999994955385e+02 -3.5650645491691464e-10 -4.9970059510547784e-10  1.9999999994603496e+02 -4.6907795239499358e-10 -2.6955054560756919e-10  1.9999999994605415e+02 4.4459543167139267e-10 5.3236731209479303e-10  1.9999999994615939e+02 -1.7746127974204697e-11 -6.2566136993955987e-10  1.9999999994992459e+02 -4.0566013012539488e-10 -5.5883441113452642e-10  1.9999999994987343e+02 -6.0929809578038199e-10 -6.2795634557564866e-10  1.9999999995353605e+02 -6.7659627017884922e-10 -7.9129815348487674e-10  1.9999999995387608e+02 -2.2256154162507212e-10 -3.5739200242172382e-10  1.9999999995312126e+02 4.2644952243457529e-10 4.1160310726467367e-10  1.9999999994979351e+02 3.5427453213622169e-11 -4.1680905875335802e-11  1.9999999995381518e+02 -8.1741317797048760e-11 -1.0849193761080613e-10  1.9999999995392366e+02 -3.1006368811964891e-10 -3.0658997769682776e-10  1.9999999994181081e+02 -2.1759034237206155e-10 -3.6024803911144298e-10  1.9999999993763089e+02 -3.0643201854812064e-10 -5.4824743213037551e-10  1.9999999993842113e+02 -7.0658953312624513e-11 3.5156631556207209e-11  1.9999999993879413e+02 5.1753388040604599e-10 3.0655940880150311e-10  1.9999999993837662e+02 5.4276289919888129e-11 -9.3205224064545888e-11  1.9999999994199811e+02 -2.9173302979489937e-10 -8.4722440583222597e-10  1.9999999994201923e+02 -9.6534318865094663e-10 -3.9729614182596551e-10  1.9999999994231257e+02 -1.3748266245087206e-10 -7.4422836559272757e-11  1.9999999993057841e+02 2.2322912088274165e-12 -1.7227278954339101e-10  1.9999999992983908e+02 -6.0642892776156058e-10 -5.2540029416429181e-10  1.9999999993439920e+02 -4.1355613725864899e-10 -5.2602886090797101e-10  1.9999999993096776e+02 3.3609145542524512e-10 4.6433574724182215e-10  1.9999999993080934e+02 -1.2856307197081860e-10 -1.2292383817027418e-10  1.9999999993416193e+02 -5.2399041237302229e-10 -8.4965399829212504e-10  1.9999999993417779e+02 -6.8694586379451493e-10 -4.6977064455411977e-10  1.9999999993457664e+02 1.1617734098006089e-10 -7.8192285793124357e-11  1.9999999992702257e+02 -5.7872984892622318e-10 -4.5997173608728687e-10  1.9999999992700819e+02 -4.1269998665214781e-10 -1.1104496027712090e-09  1.9999999992208757e+02 -3.0601220810355277e-11 2.2824274669526631e-11  1.9999999992309634e+02 6.3366206557555280e-11 1.8936271760608694e-10  1.9999999992714496e+02 -7.3229347379054359e-11 -8.4656268760741804e-12  1.9999999992708854e+02 -9.5984623421035853e-10 -4.7849410030577428e-10  1.9999999994964361e+02 -3.8445086814460333e-10 -3.3426420811733230e-10  1.9999999994597863e+02 -9.0034322960646213e-10 -9.3281860029085083e-10  1.9999999994588364e+02 -3.1876247245143612e-10 -1.7397285826216523e-11  1.9999999994601765e+02 5.0641863450823049e-10 4.6656741654257721e-10  1.9999999994606964e+02 -2.4671026501523088e-12 -2.4272999984701977e-10  1.9999999994992933e+02 -5.7201793133747902e-10 -9.6806718103843654e-10  1.9999999995007468e+02 -8.4152484981513889e-10 -5.5185881614697804e-10  1.9999999995405301e+02 -7.4858217831045197e-10 -6.6554037957147712e-10  1.9999999995389413e+02 -2.6185267888038610e-10 -2.8432804097885684e-10  1.9999999995311472e+02 5.3027217733334368e-10 4.7609983534129485e-10  1.9999999994990657e+02 -1.8898082027257419e-11 -9.1910332819892305e-11  1.9999999995389862e+02 -3.0401400306640010e-10 -2.2555868555676155e-10  1.9999999994203495e+02 -2.5942778915726801e-10 -2.6915191471670015e-10  1.9999999993763109e+02 -4.6881034262280301e-10 -2.5261784999730726e-10  1.9999999993838892e+02 -2.2727653078013427e-10 -1.0081252001800077e-10  1.9999999993884029e+02 2.9923422343167958e-10 3.2616940469576370e-10  1.9999999993839992e+02 -2.3055571320637151e-10 -2.3480493914861731e-10  1.9999999994216640e+02 -4.7306417962671244e-10 -8.0002945689048616e-10  1.9999999994204356e+02 -1.0007144088039772e-09 -4.9097004332474265e-10  1.9999999994224146e+02 -1.6319604359911070e-10 -7.8874318739709432e-12  1.9999999993432934e+02 -3.7683323230266749e-10 -3.1058916923050974e-10  1.9999999992982322e+02 -4.4351816360600879e-10 -6.4078243461184728e-10  1.9999999993060661e+02 -2.2178978250766675e-10 -5.5155051192832661e-11  1.9999999993098538e+02 1.8790901346414931e-10 2.2940910862152559e-10  1.9999999993048763e+02 1.3428282937469031e-11 -2.4806790980349740e-10  1.9999999993412837e+02 -4.3573525661383500e-10 -1.0625858537903594e-09  1.9999999993420519e+02 -1.0915562685579037e-09 -2.9089410085822111e-10  1.9999999993436049e+02 -3.7912648018036006e-10 -1.2298215874613557e-10  1.9999999992302901e+02 4.7910695250151502e-11 9.6885938542163909e-11  1.9999999992214549e+02 -1.0744408969398631e-11 -7.4282088382376224e-11  1.9999999992180108e+02 -1.2725952387523092e-11 3.3810965288902411e-11  1.9999999992680011e+02 -3.5594602443240099e-10 -5.1926116969778105e-10  1.9999999992315028e+02 1.3611886394639627e-10 1.3151535012742644e-10  1.9999999992224508e+02 -1.6616349851438743e-11 6.3322556329455497e-14  1.9999999992690348e+02 -5.9009255624757488e-10 -9.2601476140798393e-10  1.9999999992693364e+02 -9.0055203945461464e-10 -5.2160591047820366e-10  1.9999999992707271e+02 -1.6749539290315678e-10 -1.1500774520934209e-10  1.9999999992703516e+02 -1.3154350057774890e-11 -2.0978962583520930e-10  1.9999999994600267e+02 -7.0598566151454212e-10 -7.9946743164259950e-10  1.9999999994978955e+02 -2.1174588146980934e-10 -4.6364817030445464e-10  1.9999999994579812e+02 -2.3386341777459292e-10 1.1533074984767997e-10  1.9999999994591002e+02 7.8283406428209386e-10 4.6889798127247810e-10  1.9999999994608845e+02 3.4534610297417631e-11 -2.9381106804041590e-10  1.9999999994999149e+02 -4.1540012730425115e-10 -6.2491203542009860e-10  1.9999999994181385e+02 -2.3575629541699375e-10 -2.9536325923215326e-10  1.9999999993736913e+02 -5.5456220182643906e-10 -3.6166020681188041e-10  1.9999999993835425e+02 -1.8446185247491945e-10 3.0183741550978034e-11  1.9999999993871182e+02 4.6433752219113774e-10 6.1214193554173501e-10  1.9999999994188204e+02 -3.6063240873016356e-10 -6.9915424448606038e-10  1.9999999994205550e+02 -3.8557726747526456e-10 8.0620509634625107e-11  1.9999999994165930e+02 -5.6089353487401258e-10 -5.1769220194441508e-10  1.9999999993428290e+02 -4.3494983798788171e-10 -2.7052456417312646e-10  1.9999999993024213e+02 -3.1026458675971454e-10 -3.4843255331789127e-10  1.9999999993076750e+02 -1.3155849995699017e-10 -1.8261987715700409e-10  1.9999999993398370e+02 -3.0111074688005117e-10 -9.5001050612573841e-10  1.9999999992677189e+02 -3.7334802810619126e-10 -3.9272173331224796e-10  1.9999999992707808e+02 -3.9615272306746963e-10 -9.4566269897653693e-10  1.9999999992166968e+02 6.1781269378160695e-11 -1.0291326059851487e-11  1.9999999992220242e+02 -8.9209988587132153e-11 1.5032480375137965e-11  1.9999999992290014e+02 1.8630094898603054e-10 7.7438375209866312e-11  1.9999999992685360e+02 -4.2891841459941103e-10 -1.0986559247048036e-09  1.9999999995003705e+02 -6.2512591247335810e-10 -4.8267819077938739e-10  1.9999999994583283e+02 2.1449030283456331e-10 -9.8382871337680742e-10  1.9999999994588640e+02 1.0985929741508055e-10 -1.5679883384917822e-10  1.9999999994593830e+02 2.6777398024622690e-10 6.4855111764688801e-10  1.9999999995005683e+02 -1.3524218177552802e-09 -4.0911164572882288e-10  1.9999999994586398e+02 1.2163504026960578e-10 -3.7182853021811364e-10  1.9999999994587901e+02 2.1764094515014463e-09 5.1870005684069122e-10  1.9999999994589271e+02 -2.7220015220881754e-10 -2.3412595902183219e-10  1.9999999995435232e+02 1.0227682006472524e-10 -2.8500681317191240e-10  1.9999999995322131e+02 2.6195936793523266e-09 4.4112267497144371e-10  1.9999999995029506e+02 -5.4877012055490571e-10 -9.1518172325866194e-10  1.9999999995009304e+02 2.0314804322146554e-10 -4.1001553047587017e-10  1.9999999994982892e+02 -4.3322896924159235e-10 -6.3099779431502227e-10  1.9999999995390405e+02 -9.8461209315474855e-10 -9.1285067651589358e-10  1.9999999995368222e+02 -2.3760342314212623e-10 -1.3357634904667149e-10  1.9999999995326203e+02 5.9561717136042566e-10 5.4935743676186131e-10  1.9999999994961780e+02 -2.4792697488465172e-11 -2.8978743580523705e-10  1.9999999995412796e+02 -4.3732070110170031e-10 -9.7987865008168400e-11  1.9999999994195872e+02 -4.7331429779007100e-10 -1.9323038931075351e-10  1.9999999993770089e+02 -3.8744740462192202e-10 -3.1125576353195218e-10  1.9999999993803033e+02 2.0236922695243489e-10 -8.1470123843988293e-11  1.9999999993885069e+02 1.0848415281713948e-10 5.3389059042176538e-10  1.9999999994221119e+02 -1.4357135521735454e-09 -2.3164148113928626e-10  1.9999999993816778e+02 -2.9406562126130029e-11 9.8070091725149989e-11  1.9999999993877654e+02 1.9161286359438916e-09 2.8363540863376624e-10  1.9999999993839685e+02 -3.3780464698324247e-10 -2.1444968917806411e-10  1.9999999994204251e+02 -2.5702489082199308e-10 -7.4366272751687469e-10  1.9999999994233204e+02 9.8238379911231988e-11 -3.7386942386033180e-10  1.9999999994158048e+02 1.5085201083210801e-11 -8.8472485392808439e-10  1.9999999994206570e+02 2.0939603466325202e-10 -3.1935821660863425e-10  1.9999999993433437e+02 -4.2602783087108346e-10 -3.1532125842268205e-10  1.9999999993021476e+02 -3.3819302733859813e-10 -6.8604904679350914e-10  1.9999999993054232e+02 1.0148513076599902e-10 -1.9090908592341638e-10  1.9999999993134256e+02 3.5438851543480388e-10 4.5520879867011123e-10  1.9999999993441284e+02 -1.6021176305986838e-09 -2.2979704472761154e-10  1.9999999993044452e+02 1.4856364460590027e-10 -1.7069969518462193e-10  1.9999999993107070e+02 1.9837438770855986e-09 3.1014465910066179e-10  1.9999999993076685e+02 -5.3972827954923914e-10 -1.0876142221870927e-10  1.9999999993400348e+02 -3.7605103222396498e-10 -8.9064914673616974e-10  1.9999999993443822e+02 2.2717967286022418e-10 -4.5720772823296870e-10  1.9999999993381729e+02 5.4602975788747354e-11 -9.3419118058342366e-10  1.9999999993447881e+02 1.1778009681379645e-10 -4.0160547024774339e-10  1.9999999992689234e+02 -1.2358836129213061e-10 -4.6217164330726525e-10  1.9999999992191823e+02 -1.9972258332473188e-10 