<?xml version="1.0"?>
<VTKFile type="UnstructuredGrid"  version="0.1"  >
<UnstructuredGrid>
<Piece  NumberOfPoints="2082" NumberOfCells="9539">
<Points>
<DataArray  type="Float64"  NumberOfComponents="3"  format="ascii">3 0 0  3.25 0.25 0.25  3.25 0.25 0  3.25 0 0  3.5 0 0  3.5 0.25 0.25  3.5 0.25 0  3.5 0.5 0  3.5 0.5 0.25  3.5 0.5 0.5  3.25 0 0.25  3.5 0 0.25  3.5 0 0.5  3.5 0.25 0.5  3 0 0.25  3 0 0.5  3.25 0.25 0.5  3.25 0 0.5  3 0.25 0  3 0.5 0  3.25 0.5 0.25  3.25 0.5 0  3 0.25 0.25  3 0.25 0.5  3 0.5 0.5  3.25 0.5 0.5  3 0.5 0.25  3.75 0.25 0.25  3.75 0.25 0  3.75 0 0  4 0 0  4 0.25 0.25  4 0.25 0  4 0.5 0  4 0.5 0.25  4 0.5 0.5  3.75 0 0.25  4 0 0.25  4 0 0.5  4 0.25 0.5  3.75 0.25 0.5  3.75 0 0.5  3.75 0.5 0.25  3.75 0.5 0  3.75 0.5 0.5  4.25 0.25 0.25  4.25 0.25 0  4.25 0 0  4.5 0 0  4.5 0.25 0.25  4.5 0.25 0  4.5 0.5 0  4.5 0.5 0.25  4.5 0.5 0.5  4.25 0 0.25  4.5 0 0.25  4.5 0 0.5  4.5 0.25 0.5  4.25 0.25 0.5  4.25 0 0.5  4.25 0.5 0.25  4.25 0.5 0  4.25 0.5 0.5  4.75 0.25 0.25  4.75 0.25 0  4.75 0 0  5 0 0  5 0.25 0.25  5 0.25 0  5 0.5 0  5 0.5 0.25  5 0.5 0.5  4.75 0 0.25  5 0 0.25  5 0 0.5  5 0.25 0.5  4.75 0.25 0.5  4.75 0 0.5  4.75 0.5 0.25  4.75 0.5 0  4.75 0.5 0.5  3.25 0.75 0.25  3.25 0.75 0  3.5 0.75 0.25  3.5 0.75 0  3.5 1 0  3.5 1 0.25  3.5 1 0.5  3.5 0.75 0.5  3.25 0.75 0.5  3 0.75 0  3 1 0  3.25 1 0.25  3.25 1 0  3 0.75 0.25  3 0.75 0.5  3 1 0.5  3.25 1 0.5  3 1 0.25  3.75 0.75 0.25  3.75 0.75 0  4 0.75 0.25  4 0.75 0  4 1 0  4 1 0.25  4 1 0.5  4 0.75 0.5  3.75 0.75 0.5  3.75 1 0.25  3.75 1 0  3.75 1 0.5  4.25 0.75 0.25  4.25 0.75 0  4.5 0.75 0.25  4.5 0.75 0  4.5 1 0  4.5 1 0.25  4.5 1 0.5  4.5 0.75 0.5  4.25 0.75 0.5  4.25 1 0.25  4.25 1 0  4.25 1 0.5  4.75 0.75 0.25  4.75 0.75 0  5 0.75 0.25  5 0.75 0  5 1 0  5 1 0.25  5 1 0.5  5 0.75 0.5  4.75 0.75 0.5  4.75 1 0.25  4.75 1 0  4.75 1 0.5  3.25 1.25 0.25  3.25 1.25 0  3.5 1.25 0.25  3.5 1.25 0  3.5 1.5 0  3.5 1.5 0.25  3.5 1.5 0.5  3.5 1.25 0.5  3.25 1.25 0.5  3 1.25 0  3 1.5 0  3.25 1.5 0.25  3.25 1.5 0  3 1.25 0.25  3 1.25 0.5  3 1.5 0.5  3.25 1.5 0.5  3 1.5 0.25  3.75 1.25 0.25  3.75 1.25 0  4 1.25 0.25  4 1.25 0  4 1.5 0  4 1.5 0.25  4 1.5 0.5  4 1.25 0.5  3.75 1.25 0.5  3.75 1.5 0.25  3.75 1.5 0  3.75 1.5 0.5  4.25 1.25 0.25  4.25 1.25 0  4.5 1.25 0.25  4.5 1.25 0  4.5 1.5 0  4.5 1.5 0.25  4.5 1.5 0.5  4.5 1.25 0.5  4.25 1.25 0.5  4.25 1.5 0.25  4.25 1.5 0  4.25 1.5 0.5  4.75 1.25 0.25  4.75 1.25 0  5 1.25 0.25  5 1.25 0  5 1.5 0  5 1.5 0.25  5 1.5 0.5  5 1.25 0.5  4.75 1.25 0.5  4.75 1.5 0.25  4.75 1.5 0  4.75 1.5 0.5  3.25 1.75 0.25  3.25 1.75 0  3.5 1.75 0.25  3.5 1.75 0  3.5 2 0  3.5 2 0.25  3.5 2 0.5  3.5 1.75 0.5  3.25 1.75 0.5  3 1.75 0  3 2 0  3.25 2 0.25  3.25 2 0  3 1.75 0.25  3 1.75 0.5  3 2 0.5  3.25 2 0.5  3 2 0.25  3.75 1.75 0.25  3.75 1.75 0  4 1.75 0.25  4 1.75 0  4 2 0  4 2 0.25  4 2 0.5  4 1.75 0.5  3.75 1.75 0.5  3.75 2 0.25  3.75 2 0  3.75 2 0.5  4.25 1.75 0.25  4.25 1.75 0  4.5 1.75 0.25  4.5 1.75 0  4.5 2 0  4.5 2 0.25  4.5 2 0.5  4.5 1.75 0.5  4.25 1.75 0.5  4.25 2 0.25  4.25 2 0  4.25 2 0.5  4.75 1.75 0.25  4.75 1.75 0  5 1.75 0.25  5 1.75 0  5 2 0  5 1.75 0.5  5 2 0.5  4.75 1.75 0.5  4.75 2 0  4.75 2 0.5  3.25 2.25 0.25  3.25 2.25 0  3.5 2.25 0.25  3.5 2.25 0  3.5 2.5 0  3.5 2.25 0.5  3.5 2.5 0.5  3.25 2.25 0.5  3.75 2.25 0.25  3.75 2.25 0  4 2.25 0.25  3.75 2.25 0.5  4.25 2.25 0.25  3.25 0.25 0.75  3.5 0.25 0.75  3.5 0.5 0.75  3.5 0.5 1  3.25 0 0.75  3.5 0 0.75  3.5 0 1  3.5 0.25 1  3 0 0.75  3 0 1  3.25 0.25 1  3.25 0 1  3.25 0.5 0.75  3 0.25 0.75  3 0.25 1  3 0.5 1  3.25 0.5 1  3 0.5 0.75  3.75 0.25 0.75  4 0.25 0.75  4 0.5 0.75  4 0.5 1  3.75 0 0.75  4 0 0.75  4 0 1  4 0.25 1  3.75 0.25 1  3.75 0 1  3.75 0.5 0.75  3.75 0.5 1  4.25 0.25 0.75  4.5 0.25 0.75  4.5 0.5 0.75  4.5 0.5 1  4.25 0 0.75  4.5 0 0.75  4.5 0 1  4.5 0.25 1  4.25 0.25 1  4.25 0 1  4.25 0.5 0.75  4.25 0.5 1  4.75 0.25 0.75  5 0.25 0.75  5 0.5 0.75  5 0.5 1  4.75 0 0.75  5 0 0.75  5 0 1  5 0.25 1  4.75 0.25 1  4.75 0 1  4.75 0.5 0.75  4.75 0.5 1  3.25 0.75 0.75  3.5 0.75 0.75  3.5 1 0.75  3.5 1 1  3.5 0.75 1  3.25 0.75 1  3.25 1 0.75  3 0.75 0.75  3 0.75 1  3 1 1  3.25 1 1  3 1 0.75  3.75 0.75 0.75  4 0.75 0.75  4 1 0.75  4 1 1  4 0.75 1  3.75 0.75 1  3.75 1 0.75  3.75 1 1  4.25 0.75 0.75  4.5 0.75 0.75  4.5 1 0.75  4.5 1 1  4.5 0.75 1  4.25 0.75 1  4.25 1 0.75  4.25 1 1  4.75 0.75 0.75  5 0.75 0.75  5 1 0.75  5 1 1  5 0.75 1  4.75 0.75 1  4.75 1 0.75  4.75 1 1  3.25 1.25 0.75  3.5 1.25 0.75  3.5 1.5 0.75  3.5 1.5 1  3.5 1.25 1  3.25 1.25 1  3.25 1.5 0.75  3 1.25 0.75  3 1.25 1  3 1.5 1  3.25 1.5 1  3 1.5 0.75  3.75 1.25 0.75  4 1.25 0.75  4 1.5 0.75  4 1.5 1  4 1.25 1  3.75 1.25 1  3.75 1.5 0.75  3.75 1.5 1  4.25 1.25 0.75  4.5 1.25 0.75  4.5 1.5 0.75  4.5 1.5 1  4.5 1.25 1  4.25 1.25 1  4.25 1.5 0.75  4.25 1.5 1  4.75 1.25 0.75  5 1.25 0.75  5 1.5 0.75  5 1.5 1  5 1.25 1  4.75 1.25 1  4.75 1.5 0.75  4.75 1.5 1  3.25 1.75 0.75  3.5 1.75 0.75  3.5 2 0.75  3.5 2 1  3.5 1.75 1  3.25 1.75 1  3.25 2 0.75  3 1.75 0.75  3 1.75 1  3 2 1  3.25 2 1  3 2 0.75  3.75 1.75 0.75  4 1.75 0.75  4 2 0.75  4 2 1  4 1.75 1  3.75 1.75 1  3.75 2 0.75  3.75 2 1  4.25 1.75 0.75  4.5 1.75 0.75  4.5 2 0.75  4.5 2 1  4.5 1.75 1  4.25 1.75 1  4.25 2 0.75  4.25 2 1  4.75 1.75 0.75  5 1.75 0.75  5 2 0.75  5 2 1  5 1.75 1  4.75 1.75 1  3.25 2.25 0.75  3.5 2.25 0.75  3.75 2.25 0.75  4 2.25 0.75  3.75 2.25 1  4.25 2.25 0.75  3.25 0.25 1.25  3.5 0.25 1.25  3.5 0.5 1.25  3.5 0.5 1.5  3.25 0 1.25  3.5 0 1.25  3.5 0 1.5  3.5 0.25 1.5  3 0 1.25  3 0 1.5  3.25 0.25 1.5  3.25 0 1.5  3.25 0.5 1.25  3 0.25 1.25  3 0.25 1.5  3 0.5 1.5  3.25 0.5 1.5  3 0.5 1.25  3.75 0.25 1.25  4 0.25 1.25  4 0.5 1.25  4 0.5 1.5  3.75 0 1.25  4 0 1.25  4 0 1.5  4 0.25 1.5  3.75 0.25 1.5  3.75 0 1.5  3.75 0.5 1.25  3.75 0.5 1.5  4.25 0.25 1.25  4.5 0.25 1.25  4.5 0.5 1.25  4.5 0.5 1.5  4.25 0 1.25  4.5 0 1.25  4.5 0 1.5  4.5 0.25 1.5  4.25 0.25 1.5  4.25 0 1.5  4.25 0.5 1.25  4.25 0.5 1.5  4.75 0.25 1.25  5 0.25 1.25  5 0.5 1.25  5 0.5 1.5  4.75 0 1.25  5 0 1.25  5 0 1.5  5 0.25 1.5  4.75 0.25 1.5  4.75 0 1.5  4.75 0.5 1.25  4.75 0.5 1.5  3.25 0.75 1.25  3.5 0.75 1.25  3.5 1 1.25  3.5 1 1.5  3.5 0.75 1.5  3.25 0.75 1.5  3.25 1 1.25  3 0.75 1.25  3 0.75 1.5  3 1 1.5  3.25 1 1.5  3 1 1.25  3.75 0.75 1.25  4 0.75 1.25  4 1 1.25  4 1 1.5  4 0.75 1.5  3.75 0.75 1.5  3.75 1 1.25  3.75 1 1.5  4.25 0.75 1.25  4.5 0.75 1.25  4.5 1 1.25  4.5 1 1.5  4.5 0.75 1.5  4.25 0.75 1.5  4.25 1 1.25  4.25 1 1.5  4.75 0.75 1.25  5 0.75 1.25  5 1 1.25  5 1 1.5  5 0.75 1.5  4.75 0.75 1.5  4.75 1 1.25  4.75 1 1.5  3.25 1.25 1.25  3.5 1.25 1.25  3.5 1.5 1.25  3.5 1.5 1.5  3.5 1.25 1.5  3.25 1.25 1.5  3.25 1.5 1.25  3 1.25 1.25  3 1.25 1.5  3 1.5 1.5  3.25 1.5 1.5  3 1.5 1.25  3.75 1.25 1.25  4 1.25 1.25  4 1.5 1.25  4 1.5 1.5  4 1.25 1.5  3.75 1.25 1.5  3.75 1.5 1.25  3.75 1.5 1.5  4.25 1.25 1.25  4.5 1.25 1.25  4.5 1.5 1.25  4.5 1.5 1.5  4.5 1.25 1.5  4.25 1.25 1.5  4.25 1.5 1.25  4.25 1.5 1.5  4.75 1.25 1.25  5 1.25 1.25  5 1.5 1.25  5 1.5 1.5  5 1.25 1.5  4.75 1.25 1.5  4.75 1.5 1.25  4.75 1.5 1.5  3.25 1.75 1.25  3.5 1.75 1.25  3.5 2 1.25  3.5 2 1.5  3.5 1.75 1.5  3.25 1.75 1.5  3 1.75 1.25  3 1.75 1.5  3.75 1.75 1.25  4 1.75 1.25  4 2 1.25  4 2 1.5  4 1.75 1.5  3.75 1.75 1.5  3.75 2 1.25  3.75 2 1.5  4.25 1.75 1.25  4.5 1.75 1.25  4.5 2 1.25  4.5 2 1.5  4.5 1.75 1.5  4.25 1.75 1.5  4.25 2 1.5  4.75 1.75 1.25  5 1.75 1.25  5 2 1.25  5 2 1.5  5 1.75 1.5  4.75 1.75 1.5  4.75 2 1.5  3.75 2.25 1.25  3.25 0.25 1.75  3.5 0.25 1.75  3.5 0.5 1.75  3.5 0.5 2  3.25 0 1.75  3.5 0 1.75  3.5 0 2  3.5 0.25 2  3 0 1.75  3 0 2  3.25 0.25 2  3.25 0 2  3.25 0.5 1.75  3 0.25 1.75  3 0.25 2  3 0.5 2  3.25 0.5 2  3 0.5 1.75  3.75 0.25 1.75  4 0.25 1.75  4 0.5 1.75  4 0.5 2  3.75 0 1.75  4 0 1.75  4 0 2  4 0.25 2  3.75 0.25 2  3.75 0 2  3.75 0.5 1.75  3.75 0.5 2  4.25 0.25 1.75  4.5 0.25 1.75  4.5 0.5 1.75  4.5 0.5 2  4.25 0 1.75  4.5 0 1.75  4.5 0 2  4.5 0.25 2  4.25 0.25 2  4.25 0 2  4.25 0.5 1.75  4.25 0.5 2  4.75 0.25 1.75  5 0.25 1.75  5 0.5 1.75  5 0.5 2  4.75 0 1.75  5 0 1.75  5 0 2  5 0.25 2  4.75 0.25 2  4.75 0 2  4.75 0.5 1.75  4.75 0.5 2  3.25 0.75 1.75  3.5 0.75 1.75  3.5 1 1.75  3.5 1 2  3.5 0.75 2  3.25 0.75 2  3.25 1 1.75  3 0.75 1.75  3 0.75 2  3 1 2  3.25 1 2  3 1 1.75  3.75 0.75 1.75  4 0.75 1.75  4 1 1.75  4 1 2  4 0.75 2  3.75 0.75 2  3.75 1 1.75  3.75 1 2  4.25 0.75 1.75  4.5 0.75 1.75  4.5 1 1.75  4.5 1 2  4.5 0.75 2  4.25 0.75 2  4.25 1 1.75  4.25 1 2  4.75 0.75 1.75  5 0.75 1.75  5 1 1.75  5 1 2  5 0.75 2  4.75 0.75 2  4.75 1 1.75  4.75 1 2  3.25 1.25 1.75  3.5 1.25 1.75  3.5 1.5 1.75  3.5 1.5 2  3.5 1.25 2  3.25 1.25 2  3.25 1.5 1.75  3 1.25 1.75  3 1.25 2  3 1.5 2  3.25 1.5 2  3 1.5 1.75  3.75 1.25 1.75  4 1.25 1.75  4 1.5 1.75  4 1.5 2  4 1.25 2  3.75 1.25 2  3.75 1.5 1.75  3.75 1.5 2  4.25 1.25 1.75  4.5 1.25 1.75  4.5 1.5 1.75  4.5 1.5 2  4.5 1.25 2  4.25 1.25 2  4.25 1.5 1.75  4.25 1.5 2  4.75 1.25 1.75  5 1.25 1.75  5 1.5 1.75  5 1.5 2  5 1.25 2  4.75 1.25 2  4.75 1.5 1.75  4.75 1.5 2  3.25 1.75 1.75  3.5 1.75 1.75  3.5 2 1.75  3.5 2 2  3.5 1.75 2  3.25 1.75 2  3 1.75 1.75  3 1.75 2  3.75 1.75 1.75  4 1.75 1.75  4 2 1.75  4 2 2  4 1.75 2  3.75 1.75 2  3.75 2 1.75  3.75 2 2  4.25 1.75 1.75  4.5 1.75 1.75  4.5 2 1.75  4.5 2 2  4.5 1.75 2  4.25 1.75 2  4.25 2 2  4.75 1.75 1.75  5 1.75 1.75  5 2 1.75  5 2 2  5 1.75 2  4.75 1.75 2  4.75 2 1.75  4.75 2 2  3.75 2.25 1.75  3.75 2.25 2  4.75 2.25 1.75  5 2.25 1.75  5 2.25 2  5 2.5 2  4.75 2.25 2  3.25 0.25 2.25  3.5 0.25 2.25  3.5 0.5 2.25  3.5 0.5 2.5  3.25 0 2.25  3.5 0 2.25  3.5 0 2.5  3.5 0.25 2.5  3 0 2.25  3 0 2.5  3.25 0.25 2.5  3.25 0 2.5  3.25 0.5 2.25  3 0.25 2.25  3 0.25 2.5  3 0.5 2.5  3.25 0.5 2.5  3 0.5 2.25  3.75 0.25 2.25  4 0.25 2.25  4 0.5 2.25  4 0.5 2.5  3.75 0 2.25  4 0 2.25  4 0 2.5  4 0.25 2.5  3.75 0.25 2.5  3.75 0 2.5  3.75 0.5 2.25  3.75 0.5 2.5  4.25 0.25 2.25  4.5 0.25 2.25  4.5 0.5 2.25  4.5 0.5 2.5  4.25 0 2.25  4.5 0 2.25  4.5 0 2.5  4.5 0.25 2.5  4.25 0.25 2.5  4.25 0 2.5  4.25 0.5 2.25  4.25 0.5 2.5  4.75 0.25 2.25  5 0.25 2.25  5 0.5
[...]
<PointData  Vectors="u"> 
<DataArray  type="Float64"  Name="u"  NumberOfComponents="3" format="ascii">1.9999999995335830e+02 3.3387451899597558e-09 3.4483625904047949e-09  1.9999999994984975e+02 -4.7554854282917347e-10 -7.0527673634724923e-10  1.9999999995003708e+02 -1.1334204748394194e-09 -2.2806406250422820e-09  1.9999999994998313e+02 -7.9354335328874983e-10 3.2311108050087015e-10  1.9999999994646373e+02 3.1517628971170973e-09 3.3657302609031679e-09  1.9999999994498040e+02 -5.0487468953091171e-10 -8.8147468411101374e-10  1.9999999994570041e+02 -3.3106718522189011e-10 2.3515270424038631e-10  1.9999999994621092e+02 8.0529050736619294e-10 3.1669737764426520e-09  1.9999999994603425e+02 -3.8142177491310903e-10 -3.5352887167879061e-10  1.9999999994603988e+02 6.0857120277723881e-10 8.0803930783327396e-10  1.9999999995003455e+02 -6.3836488344927334e-10 -2.4189242053688665e-10  1.9999999994562415e+02 2.1981887615758834e-10 -5.3582383961239483e-11  1.9999999994618238e+02 2.2279655654513173e-09 6.4703045283857897e-10  1.9999999994633748e+02 -2.9405165960598760e-10 -1.5842646807388785e-10  1.9999999995440368e+02 -1.3885833815360900e-11 -1.0655208799768545e-10  1.9999999995331595e+02 2.7018206684395204e-09 7.0044461067980192e-10  1.9999999995030538e+02 -4.2889471403175725e-10 -5.6903789251290392e-10  1.9999999995005530e+02 8.6566147295873765e-11 9.7781954845400107e-11  1.9999999995409047e+02 -1.3544401374284356e-10 4.7249000739545189e-10  1.9999999995312299e+02 7.0908974623240924e-10 3.4264231090930865e-09  1.9999999995033960e+02 -5.2171718880570332e-10 -7.6746453961770185e-10  1.9999999995004686e+02 -1.6892309955409614e-10 4.9834624849119628e-10  1.9999999995432611e+02 -7.4177220705873231e-10 -8.1295678778587327e-10  1.9999999995385866e+02 -3.2500325768237270e-10 -3.0686310074250105e-11  1.9999999995330069e+02 5.6277538918156955e-10 8.1303061885133803e-10  1.9999999994988306e+02 -1.5938452992930081e-10 -2.7835846199195728e-10  1.9999999995397860e+02 -2.3267635730939771e-10 -3.5051873205374509e-10  1.9999999994202233e+02 -6.9026327215454280e-10 -6.7517506368599803e-10  1.9999999994144241e+02 -1.2684484376849762e-09 -2.3812933298815890e-09  1.9999999994198316e+02 -3.5094141804318582e-10 -3.1458143490421589e-11  1.9999999993908486e+02 3.1472270830039795e-09 3.3215328074144676e-09  1.9999999993771655e+02 -5.7281309244523080e-10 -8.4510865164356329e-10  1.9999999993831290e+02 -4.8741225029975109e-10 1.0179772789923925e-10  1.9999999993919275e+02 6.6798259748841300e-10 3.1750725951384543e-09  1.9999999993850099e+02 8.2016615581038726e-13 -4.4427548074807952e-10  1.9999999993901912e+02 5.3361908103943650e-10 6.3345010554431139e-10  1.9999999994209074e+02 -1.6405227720999421e-09 -2.8489784628775704e-10  1.9999999993830980e+02 2.9391178476634899e-10 -2.2590156003700432e-10  1.9999999993894241e+02 2.2031989246207010e-09 5.6861256564243718e-10  1.9999999993855627e+02 -4.7710682054871927e-10 1.6274175500078431e-10  1.9999999994196722e+02 -2.4194170786306456e-10 -7.7727507763545452e-10  1.9999999994227926e+02 2.0111585404018296e-10 -2.2516678985927440e-10  1.9999999994207630e+02 -8.1442651233189733e-10 -9.3853135919405862e-10  1.9999999994223305e+02 -4.5234727115518159e-10 1.5437150324194265e-10  1.9999999994226403e+02 2.9230923802682374e-10 -3.9135294971298648e-10  1.9999999993457013e+02 -5.5605649350532314e-10 -6.9021280781789966e-10  1.9999999993389631e+02 -1.1152596100925903e-09 -2.3882698758582644e-09  1.9999999993454261e+02 -3.8854891326406687e-10 1.1430479457334747e-10  1.9999999993190514e+02 2.8941525238261558e-09 3.2664767173602933e-09  1.9999999993046143e+02 -2.4392241312778238e-10 -8.7283936303718883e-10  1.9999999993111436e+02 -5.2905659457647573e-10 2.1013893535734086e-10  1.9999999993161697e+02 7.3798193463822574e-10 3.3143090397841350e-09  1.9999999993110180e+02 -1.7041963416312146e-10 -4.7676460886897390e-10  1.9999999993157184e+02 2.9546401761778947e-10 4.8152997331308475e-10  1.9999999993464880e+02 -1.0182140472720754e-09 -1.4605807398207603e-10  1.9999999993098805e+02 -1.8159456179952939e-10 -3.7014835736854945e-10  1.9999999993154265e+02 1.9546993047562270e-09 6.9072986640315730e-10  1.9999999993115247e+02 -2.6469441405803393e-10 2.2185982001735750e-10  1.9999999993461503e+02 -2.5354691618794120e-10 -4.3830293396770953e-10  1.9999999993482791e+02 2.4021909575196004e-10 -1.8395625479454606e-10  1.9999999993466596e+02 -8.2020079682820176e-10 -9.3650568121826116e-10  1.9999999993488203e+02 -1.1647760752119522e-10 2.3098764580938938e-10  1.9999999993498130e+02 3.4395342557486762e-10 -5.1179942358126836e-10  1.9999999992749301e+02 -4.7445253712046630e-10 -5.8017265731271160e-10  1.9999999992712927e+02 -1.2343171314941305e-09 -1.9990896785590119e-09  1.9999999992761022e+02 -3.2870093806879596e-10 -2.4181578557580620e-10  1.9999999992351042e+02 1.3872821310831283e-09 1.4484868971114188e-09  1.9999999992225938e+02 -1.5310069528387005e-10 -2.0381323138819566e-10  1.9999999992273172e+02 -1.5778883015570294e-10 -4.5706629983109273e-10  1.9999999992367424e+02 3.0571848096674470e-10 1.5618165950573049e-09  1.9999999992270642e+02 -4.2727070310882623e-12 -7.1484008765090337e-11  1.9999999992347014e+02 1.7895578871598023e-10 2.4776704580490995e-10  1.9999999992757108e+02 -1.1889458138529162e-09 -8.7374166728516983e-11  1.9999999992305197e+02 6.7363491120203514e-11 -2.1844002602476680e-10  1.9999999992318615e+02 8.0404206763534330e-10 2.3274592836823990e-10  1.9999999992282750e+02 -2.1170798006841829e-11 1.2467428473779753e-10  1.9999999992734226e+02 -4.0349788673823655e-11 -9.3794609139803595e-10  1.9999999992768335e+02 4.2085467078495693e-11 -3.3360168300756719e-10  1.9999999992733788e+02 -9.5320831519729695e-10 -7.5501057228433517e-10  1.9999999992763159e+02 -3.4023419244109366e-10 1.9073577842313068e-10  1.9999999992767187e+02 2.2638795360115111e-10 -5.3468983824341347e-10  1.9999999995019638e+02 -3.4445812999109701e-10 -4.3078201302569278e-10  1.9999999995072750e+02 -7.9745292362026385e-10 -2.1709743437009098e-09  1.9999999994586275e+02 -9.3995886743531768e-10 -1.2678516831754260e-09  1.9999999994602950e+02 -4.7082072836013271e-10 2.0826436715909724e-10  1.9999999994617059e+02 5.4104984702720765e-10 3.1579124611892612e-09  1.9999999994603985e+02 -6.3318725616713875e-10 -2.8740945378335137e-10  1.9999999994615712e+02 4.4660509692986804e-10 6.8096289966556022e-10  1.9999999994643102e+02 -1.2477065448729045e-10 -2.3767201032651288e-10  1.9999999995034401e+02 -5.4856227434197381e-10 -4.6922581909909612e-10  1.9999999995389720e+02 9.8453426128195023e-11 1.8823712665604656e-10  1.9999999995311728e+02 4.0458629096491685e-10 3.2388593723968828e-09  1.9999999995026386e+02 -8.3280829033030891e-10 -8.7375936864353978e-10  1.9999999994985862e+02 -3.9546265749864590e-10 1.8222157258620684e-10  1.9999999995403977e+02 -5.8164904943565505e-10 -1.0178368434893140e-09  1.9999999995400734e+02 -1.5009425890100605e-10 -2.6871727240435489e-10  1.9999999995324808e+02 5.6855471982762559e-10 7.2533598464514490e-10  1.9999999994975363e+02 -3.4589899250950593e-10 8.7226108222471694e-11  1.9999999995380475e+02 -3.9543065858752907e-10 -2.9871731989444129e-10  1.9999999994203455e+02 -2.4413133956353783e-10 -6.3603950289667530e-10  1.9999999994155729e+02 -9.7376688940123439e-10 -2.3230486203616072e-09  1.9999999993795541e+02 -5.6852654069903327e-10 -8.5317072887422529e-10  1.9999999993844014e+02 -2.6914623169262164e-10 1.9781947702790336e-10  1.9999999993914972e+02 4.4508066741633389e-10 3.2349287332569770e-09  1.9999999993858421e+02 -8.9064961517189458e-11 -3.4456880571701472e-10  1.9999999993896256e+02 4.2488984777177909e-10 6.8363621419063068e-10  1.9999999993845378e+02 -1.8889976100327672e-10 6.3933124163664288e-11  1.9999999994204680e+02 -3.5548586919609825e-10 -7.1181180978093129e-10  1.9999999994204481e+02 -9.5714344218574938e-10 -7.7222080908157127e-10  1.9999999994223774e+02 -4.6009023540919583e-10 2.3840951257534122e-10  1.9999999994220522e+02 -1.2422637412687866e-10 -4.4430282170529484e-12  1.9999999993468776e+02 -3.4265463354848090e-10 -8.4104617855211903e-10  1.9999999993403796e+02 -1.0634114730594107e-09 -2.3749956206139464e-09  1.9999999993018218e+02 -5.1596099229045010e-10 -1.0966076187521968e-09  1.9999999993070207e+02 -3.5671546420084002e-10 4.2885364572832630e-10  1.9999999993162319e+02 5.2033943379037900e-10 3.1265151899840713e-09  1.9999999993097450e+02 -2.5775365462388921e-10 -5.3299156329308973e-10  1.9999999993140236e+02 5.0178110371080547e-10 6.0055754158862988e-10  1.9999999993110001e+02 -2.7983748430344594e-10 -4.9285674059163902e-11  1.9999999993432789e+02 -4.6368103170454403e-10 -8.9887027838555926e-10  1.9999999993448588e+02 -8.9617841745239083e-10 -9.0904760816549784e-10  1.9999999993485358e+02 -5.4706061955613782e-10 4.7017173216449053e-10  1.9999999993481256e+02 2.6504521269285024e-11 7.9717223903212680e-11  1.9999999992743167e+02 -4.2010841653880273e-10 -6.9876755150385540e-10  1.9999999992711440e+02 -1.0094601796585877e-09 -2.2553094299937245e-09  1.9999999992211650e+02 -3.0655319638454741e-11 -1.2907637004155202e-10  1.9999999992247896e+02 -1.5808941288412561e-11 -4.2645736452291416e-10  1.9999999992362430e+02 2.0346378422306083e-10 1.5750161120684301e-09  1.9999999992249877e+02 -3.1277734912852947e-11 -4.8841498864842903e-11  1.9999999992341336e+02 1.0520861423143808e-10 2.4683197755748992e-10  1.9999999992260459e+02 -2.7203501648773327e-11 6.0358545292844057e-11  1.9999999992744790e+02 -4.7090084247121109e-10 -1.0916777277919647e-09  1.9999999992746032e+02 -9.9020835088739908e-10 -7.5667101355304377e-10  1.9999999992739654e+02 -3.7618096517377591e-10 3.8003905629897920e-10  1.9999999992769784e+02 -1.2562992643750609e-10 -4.9146257737991670e-11  1.9999999994993919e+02 -3.0962294700878253e-10 -3.5643595828932634e-10  1.9999999995062166e+02 -8.5896371327803217e-10 -2.3599636217327074e-09  1.9999999994621379e+02 -8.2297845751062306e-10 -1.2159223296381553e-09  1.9999999994611406e+02 -1.4690347613666494e-10 -1.0334845422953937e-10  1.9999999994616093e+02 5.2625002130206004e-10 3.2606379080233949e-09  1.9999999994611258e+02 -4.0140557662669456e-10 -3.8531875159045608e-10  1.9999999994606219e+02 5.9040652142483219e-10 5.9951295670235400e-10  1.9999999994649164e+02 -3.5329688230078495e-10 -2.2908545349250604e-10  1.9999999995015133e+02 -6.5826322518139870e-10 -3.3271110056744675e-10  1.9999999995421325e+02 -1.7829349677658633e-10 1.4652605509532573e-10  1.9999999995316711e+02 6.1326889827091971e-10 3.1990022136505721e-09  1.9999999995023214e+02 -6.8180697500912320e-10 -8.3871351761166545e-10  1.9999999994983992e+02 -5.0920766754356134e-10 2.5287831597653017e-11  1.9999999995406583e+02 -5.9674242718861329e-10 -6.9358946690335280e-10  1.9999999995405810e+02 -1.6418870334753558e-10 -2.4235239302625427e-10  1.9999999995317933e+02 4.2844223739662410e-10 7.3368298426867375e-10  1.9999999994982340e+02 -4.2586960668036618e-10 7.0187350907310646e-13  1.9999999995401359e+02 -3.4579880949504486e-10 -4.5450604827408992e-10  1.9999999994196838e+02 -2.4964963091529744e-10 -6.1028623143144176e-10  1.9999999994151642e+02 -9.4572581755069090e-10 -2.1427954115968152e-09  1.9999999993794515e+02 -5.8894732271633186e-10 -7.2637193570368966e-10  1.9999999993834214e+02 -2.9599843044143398e-10 3.3902922275748454e-10  1.9999999993915304e+02 4.8355036104206135e-10 3.1757175549625749e-09  1.9999999993862852e+02 -3.0807084258524106e-11 -2.5555693868768557e-10  1.9999999993898783e+02 4.4647604842706672e-10 7.8066878416137330e-10  1.9999999993872720e+02 -2.8227127444911347e-10 6.9392802116843340e-11  1.9999999994194764e+02 -5.8555786113794831e-10 -8.7696340443093542e-10  1.9999999994186462e+02 -9.2946615115458895e-10 -8.0279760787922261e-10  1.9999999994221625e+02 -4.5469236515945871e-10 3.4354817065207602e-10  1.9999999994240545e+02 -2.6577409635009836e-11 -2.5718660418105716e-12  1.9999999993463231e+02 -3.9954466918186752e-10 -6.6097944523174689e-10  1.9999999993422401e+02 -9.2743693664133153e-10 -2.1055333746757428e-09  1.9999999993045685e+02 -3.9522011460964556e-10 -9.1203991879736308e-10  1.9999999993087025e+02 -2.1490865947766012e-10 1.6603341296780444e-10  1.9999999993156524e+02 3.5532313830992644e-10 3.2309869316404964e-09  1.9999999993094283e+02 -1.8608678292191266e-10 -3.8636371469280136e-10  1.9999999993132045e+02 3.8080844295670321e-10 6.4468728408189919e-10  1.9999999993100894e+02 -2.1091087810048425e-10 8.3843968640753549e-11  1.9999999993439548e+02 -3.8111992679963399e-10 -9.2068346666093410e-10  1.9999999993451036e+02 -8.5834238877268312e-10 -7.9528539969036017e-10  1.9999999993461384e+02 -3.5734443159686821e-10 1.1353820086746095e-10  1.9999999993492636e+02 -1.0463713538940876e-10 2.5004451225229765e-10  1.9999999992728632e+02 -4.6250394829946392e-10 -7.4792163706356663e-10  1.9999999992693805e+02 -1.0219388293034722e-09 -1.9726234203255163e-09  1.9999999992220407e+02 -5.8826151102007176e-11 -6.2051379793206854e-11  1.9999999992243147e+02 1.7527122522188515e-11 -4.7138181328379648e-10  1.9999999992381089e+02 1.4762530898651676e-10 1.5479015812620013e-09  1.9999999992261544e+02 -3.4429371915964103e-12 -5.0537853539528557e-11  1.9999999992338124e+02 1.2547219944647783e-10 2.6382745703842609e-10  1.9999999992245506e+02 -4.2985304575960343e-11 1.1808151506099368e-10  1.9999999992731341e+02 -4.3397632397356130e-10 -1.0605220667458403e-09  1.9999999992726703e+02 -9.9178720476899906e-10 -6.5586569577155353e-10  1.9999999992735280e+02 -5.3125580598633865e-10 2.4854810558980472e-10  1.9999999992752561e+02 -1.2927705751507781e-10 4.2904974942168363e-11  1.9999999994997697e+02 -2.8768814366878301e-10 -2.8882277853366811e-10  1.9999999995046988e+02 -1.0395932033370123e-09 -2.3853672495014160e-09  1.9999999994602121e+02 -8.8396526232767919e-10 -1.0990207848429855e-09  1.9999999994620629e+02 -3.9544204444379615e-10 5.6368901934653437e-11  1.9999999994625242e+02 6.6443199230901597e-10 3.4133611188750028e-09  1.9999999994613370e+02 -5.4433992088955774e-10 -3.7805329262092051e-10  1.9999999994602013e+02 4.5228709249801789e-10 9.1987772543995569e-10  1.9999999994646066e+02 1.2622796434590426e-11 -3.0520933504446257e-10  1.9999999995033389e+02 -5.0862781921486864e-10 -2.5487245722116109e-10  1.9999999995392815e+02 -3.8928509605775015e-10 -9.9353692711820153e-12  1.9999999995302076e+02 6.1766952602656893e-10 3.4391757451692524e-09  1.9999999995015210e+02 -6.7463142546914739e-10 -8.8061146073855246e-10  1.9999999994964622e+02 -2.0124981014250216e-10 3.5305781208926093e-10  1.9999999995412202e+02 -6.1561985114205378e-10 -8.9816750759236353e-10  1.9999999995399287e+02 -3.6226520786960832e-10 -1.2025809456363813e-10  1.9999999995314352e+02 6.1526691790383821e-10 7.5361014450719585e-10  1.9999999995003998e+02 -2.8132797218193527e-10 9.7037566070687920e-11  1.9999999995386315e+02 -3.1996812247751195e-10 -5.0147850707438366e-10  1.9999999994204799e+02 -1.9413159917044685e-10 -4.9863954301853164e-10  1.9999999994151790e+02 -8.3761008422215785e-10 -2.4318372623071332e-09  1.9999999993769731e+02 -5.0669691593944900e-10 -6.8352792071179787e-10  1.9999999993836212e+02 -2.2731206719362421e-10 3.3019501891982873e-10  1.9999999993912297e+02 4.9729653522971188e-10 3.2939956533102087e-09  1.9999999993860399e+02 -2.0034902171769001e-10 -2.1651177251557966e-10  1.9999999993900843e+02 2.8976211429480232e-10 7.6211676421994285e-10  1.9999999993845725e+02 4.8224053024883877e-11 1.8893125826276323e-10  1.9999999994205425e+02 -3.9140956258458430e-10 -6.8744557752884744e-10  1.9999999994196116e+02 -8.3628848554537164e-10 -9.1663491499697205e-10  1.9999999994214468e+02 -4.6108327193879768e-10 3.9830641962192745e-10  1.9999999994229270e+02 -2.6664248408546982e-10 1.2355010916651640e-10  1.9999999993464593e+02 -2.1854709289014236e-10 -6.4412632504193381e-10  1.9999999993396659e+02 -9.7445668796193213e-10 -1.9557805038106798e-09  1.9999999993018218e+02 -5.5287328157009789e-10 -9.4704241039486278e-10  1.9999999993090046e+02 -7.4372944076447622e-11 3.8823388315173901e-10  1.9999999993154648e+02 4.6911479223664476e-10 3.0953487407522234e-09  1.9999999993096739e+02 -1.1122101550572618e-10 -2.6572598555713352e-10  1.9999999993126880e+02 4.0753814453610877e-10 7.0131302616542662e-10  1.9999999993084376e+02 -2.4434258409050333e-10 1.1985738058126496e-10  1.9999999993443589e+02 -4.1535846410723972e-10 -8.7731420816645686e-10  1.9999999993436046e+02 -1.0478329376143507e-09 -7.3051079478749711e-10  1.9999999993471971e+02 -3.1341232883824214e-10 2.2430478377773493e-10  1.9999999993475416e+02 -1.1480410405900907e-10 1.9262261791735080e-10  1.9999999992728269e+02 -2.8890753303465414e-10 -6.7751677004038000e-10  1.9999999992682686e+02 -8.1322507244973318e-10 -2.0180866690070229e-09  1.9999999992219429e+02 -6.2291989597375586e-11 -5.7412191567120072e-11  1.9999999992253191e+02 -2.3232973092117105e-11 -4.6640631113796048e-10  1.9999999992345730e+02 2.0939734443722636e-10 1.5266415611386517e-09  1.9999999992236221e+02 -6.3542540866718567e-11 1.6286215634519955e-10  1.9999999992310023e+02 1.3226736385261968e-10 2.1382951952590296e-10  1.9999999992733726e+02 -4.4385825320601703e-10 -9.8636394383304543e-10  1.9999999992749082e+02 -3.8798676187968120e-10 2.9505308273208114e-10  1.9999999992759967e+02 -1.1313367011991076e-10 1.2562620686216022e-10  1.9999999995001801e+02 -5.0479531188213373e-10 -4.9520432175459010e-10  1.9999999995045090e+02 -8.9714009942976857e-10 -2.6692676954731829e-09  1.9999999994601785e+02 -7.8922334628604551e-10 -1.2869316967819150e-09  1.9999999994623042e+02 -7.4385138539063161e-11 -2.4463278550907989e-11  1.9999999994643781e+02 3.8340836775916648e-10 3.4143790206670055e-09  1.9999999994651469e+02 -1.8781844138098789e-10 -3.4536025854194177e-11  1.9999999994641777e+02 4.5973234472757254e-10 8.5652140000203971e-10  1.9999999995024049e+02 -9.2686858905712262e-10 -1.8114148533984993e-10  1.9999999994206092e+02 -2.5854152659996731e-11 -5.8387483567470321e-10  1.9999999994143877e+02 -8.1099595877908409e-10 -2.4446841818170146e-09  1.9999999993758266e+02 -2.8176095134487957e-10 -7.3327153022909303e-10  1.9999999994200166e+02 -1.0497948199583688e-10 -7.7338429431825374e-10  1.9999999993456470e+02 -3.2572862053651180e-10 -6.4898911905304721e-10  1.9999999995005072e+02 -5.6323855015087926e-10 -2.5258538586850441e-10  1.9999999994622090e+02 3.8800109779447861e-10 -9.8405569039022643e-10  1.9999999994600597e+02 3.6719660457914768e-10 -3.4615173701188873e-11  1.9999999994599841e+02 4.1936643087812376e-10 5.6734711433162295e-10  1.9999999995022250e+02 -1.3316616157833549e-09 -1.0736388390573935e-10  1.9999999994598380e+02 4.7052789552437861e-11 5.9786065872711236e-11  1.9999999994607325e+02 2.0454052968468785e-09 6.1716571153841229e-10  1.9999999994613566e+02 -3.5009798385996870e-10 -1.2907031044804782e-10  1.9999999995432518e+02 -4.3942832898561096e-11 5.4579743145751461e-11  1.9999999995334994e+02 2.5751656522295352e-09 4.4280395524116937e-10  1.9999999995024214e+02 -6.0977163326655741e-10 -8.3222548348981302e-10  1.9999999995000263e+02 1.8002291336206775e-11 -3.7699903805548005e-10  1.9999999995027591e+02 -3.8954925825681434e-10 -5.0787256484276183e-10  1.9999999995404278e+02 -8.4245751713310782e-10 -4.4023974870244488e-10  1.9999999995372843e+02 -3.0931067783738703e-10 -2.4718967273637212e-10  1.9999999995313880e+02 5.4071838856942125e-10 7.4038727652432722e-10  1.9999999995003762e+02 1.0717469728664342e-10 -2.8319379758921892e-10  1.9999999995396806e+02 -2.3125251728968814e-10 -1.9389982124612603e-10  1.9999999994203662e+02 -5.3975017312230629e-10 -3.0976444268700306e-10  1.9999999993789493e+02 -2.0614184320501577e-10 -3.9237217376387492e-10  1.9999999993830230e+02 2.4389332364523852e-10 -1.3935008668433640e-10  1.9999999993916643e+02 2.1120313261371384e-10 5.3192153877112083e-10  1.9999999994224882e+02 -1.4524524286067883e-09 -2.4548401878753146e-10  1.9999999993830127e+02 -3.7549394118855289e-11 -1.0429607101660728e-10  1.9999999993887403e+02 2.1025691306645343e-09 5.4456833488868273e-10  1.9