<?xml version="1.0"?>
<VTKFile type="UnstructuredGrid"  version="0.1"  >
<UnstructuredGrid>
<Piece  NumberOfPoints="2092" NumberOfCells="9484">
<Points>
<DataArray  type="Float64"  NumberOfComponents="3"  format="ascii">5 2 0  5 2 0.25  5 1.75 0.25  4.75 1.75 0.25  5 2 0.5  4.5 2 0  4.75 2 0.25  4.75 2 0  4.5 2 0.25  4.5 2 0.5  4.75 2 0.5  3.5 2.5 0  3.5 2.5 0.25  3.5 2.25 0.25  3.25 2.25 0.25  3.5 2.5 0.5  3 2.5 0  3.25 2.5 0.25  3.25 2.5 0  3.25 2.25 0  4 2 0  4 2.25 0.25  4 2.25 0  3.75 2.25 0.25  3.75 2.25 0  4 2.5 0  4 2.5 0.25  4 2.5 0.5  4 2 0.5  4 2.25 0.5  3.75 2.25 0.5  3.75 2.5 0.25  3.75 2.5 0  3.75 2.5 0.5  4.25 2.25 0.25  4.25 2.25 0  4.25 2 0  4.5 2.25 0.25  4.5 2.25 0  4.5 2.5 0  4.5 2.5 0.25  4.5 2.5 0.5  4.5 2.25 0.5  4.25 2.25 0.5  4.25 2 0.5  4.25 2.5 0.25  4.25 2.5 0  4.25 2.5 0.5  4.75 2.25 0.25  4.75 2.25 0  5 2.25 0.25  5 2.25 0  5 2.5 0  5 2.5 0.25  5 2.5 0.5  5 2.25 0.5  4.75 2.25 0.5  4.75 2.5 0.25  4.75 2.5 0  4.75 2.5 0.5  4.75 2 0.75  4.75 1.75 0.75  5 2 0.75  5 2 1  4.5 2 1  4.75 2 1  4.75 1.75 1  4.5 2 0.75  4 2.25 0.75  3.75 2.25 0.75  4 2.5 0.75  4 2.5 1  4 2 1  4 2.25 1  3.75 2.25 1  3.75 2.5 0.75  3.5 2.5 1  3.75 2.5 1  3.5 2.5 0.75  4.25 2.25 0.75  4.5 2.25 0.75  4.5 2.5 0.75  4.5 2.5 1  4.5 2.25 1  4.25 2.25 1  4.25 2 1  4.25 2.5 0.75  4.25 2.5 1  4.75 2.25 0.75  5 2.25 0.75  5 2.5 0.75  5 2.5 1  5 2.25 1  4.75 2.25 1  4.75 2.5 0.75  4.75 2.5 1  4.25 2 1.25  4.25 1.75 1.25  4.5 2 1.25  4.5 2 1.5  4 2 1.25  4 2 1.5  4.25 2 1.5  4.75 2 1.25  4.75 1.75 1.25  5 2 1.25  5 2 1.5  4.75 2 1.5  4 2.25 1.25  3.75 2.25 1.25  4 2.5 1.25  4 2.5 1.5  4 2.25 1.5  3.5 2 1.5  3.75 2.25 1.5  3.75 2 1.5  3.75 2.5 1.25  3.5 2.25 1.5  3.5 2.5 1.5  3.75 2.5 1.5  3.5 2.5 1.25  4.25 2.25 1.25  4.5 2.25 1.25  4.5 2.5 1.25  4.5 2.5 1.5  4.5 2.25 1.5  4.25 2.25 1.5  4.25 2.5 1.25  4.25 2.5 1.5  4.75 2.25 1.25  5 2.25 1.25  5 2.5 1.25  5 2.5 1.5  5 2.25 1.5  4.75 2.25 1.5  4.75 2.5 1.25  4.75 2.5 1.5  4.25 2 1.75  4.25 1.75 1.75  4.5 2 1.75  4.5 2 2  4 2 1.75  4 2 2  4.25 2 2  3.75 2.25 1.75  4 2.25 1.75  4 2.5 1.75  4 2.5 2  4 2.25 2  3.75 2.25 2  3.75 2.5 1.75  3.5 2.5 2  3.75 2.5 2  3.5 2.5 1.75  4.25 2.25 1.75  4.5 2.25 1.75  4.5 2.5 1.75  4.5 2.5 2  4.5 2.25 2  4.25 2.25 2  4.25 2.5 1.75  4.25 2.5 2  4.75 2.25 1.75  5 2.25 1.75  5 2.5 1.75  5 2.5 2  4.75 2.5 1.75  4.75 2.25 2  4.75 2.5 2  4.25 2 2.25  4.25 1.75 2.25  4.5 2 2.25  4.5 2 2.5  4 2 2.25  4 2 2.5  4.25 2 2.5  4 2.25 2.25  3.75 2.25 2.25  4 2.5 2.25  4 2.5 2.5  4 2.25 2.5  3.75 2.25 2.5  3.75 2.5 2.25  3.5 2.5 2.5  3.75 2.5 2.5  4.25 2.25 2.25  4.5 2.25 2.25  4.5 2.5 2.25  4.5 2.5 2.5  4.5 2.25 2.5  4.25 2.25 2.5  4.25 2.5 2.25  4.25 2.5 2.5  5 2.5 2.25  5 2.25 2.25  4.75 2.25 2.25  5 2.5 2.5  4.75 2.5 2.25  4.75 2.25 2.5  4.75 2.5 2.5  4 2.25 2.75  3.75 2.25 2.75  4 2.5 2.75  4 2.5 3  3.75 2.5 2.75  4.25 2.25 2.75  4.5 2.25 2.75  4.5 2.5 2.75  4.5 2.5 3  4.5 2.25 3  4.25 2.25 3  4.25 2.5 2.75  4.25 2.5 3  5 2.5 2.75  5 2.25 2.75  4.75 2.25 2.75  5 2.5 3  5 2 3  5 2.25 3  4.75 2.25 3  4.75 2.5 2.75  4.75 2.5 3  4.5 2.5 3.25  4.5 2.25 3.25  4.25 2.25 3.25  4.5 2.5 3.5  4.25 2.5 3.25  4 2.5 3.25  4 2.5 3.5  4.25 2.5 3.5  5 2.25 3.25  4.75 2.25 3.25  5 2.5 3.25  5 2.5 3.5  4.75 2.5 3.25  4.75 2.5 3.5  3.5 2 3.5  3.5 2.25 3.75  3.5 2.25 3.5  3.25 2.25 3.75  3.5 2.5 3.5  3.5 2.5 3.75  3.5 2.5 4  3.5 2 3.75  3.5 2 4  3.5 2.25 4  3 2 4  3.25 2.25 4  3.25 2 4  3.25 2.5 3.75  3 2.5 4  3.25 2.5 4  4 2.5 3.75  4 2.25 3.75  3.75 2.25 3.75  4 2.5 4  4 2 4  4 2.25 4  3.75 2.25 4  3.75 2.5 3.75  3.75 2.5 3.5  3.75 2.5 4  4.5 2.5 3.75  4.5 2.25 3.75  4.25 2.25 3.75  4.5 2.5 4  4.5 2 4  4.5 2.25 4  4.25 2.25 4  4.25 2.5 3.75  4.25 2.5 4  4.75 2.5 3.75  4.75 2.25 3.75  5 2.5 3.75  5 2.5 4  4.75 2.25 4  4.75 2.5 4  3.25 2.25 4.25  3.5 2.25 4.25  3.5 2.5 4.25  3.5 2.5 4.5  3.5 2 4.5  3.5 2.25 4.5  3.25 2.25 4.5  3.25 2.5 4.25  3 2.5 4.5  3.25 2.5 4.5  3 2.5 4.25  4 2.25 4.25  3.75 2.25 4.25  4 2.5 4.25  4 2.5 4.5  4 2 4.5  4 2.25 4.5  3.75 2.25 4.5  3.75 2 4.5  3.75 2.5 4.25  3.75 2.5 4.5  4.5 2.25 4.25  4.25 2.25 4.25  4.5 2.5 4.25  4.5 2.5 4.5  4.5 2 4.5  4.5 2.25 4.5  4.25 2.25 4.5  4.25 2.5 4.25  4.25 2.5 4.5  5 2.5 4.25  5 2.25 4.25  4.75 2.25 4.25  5 2.5 4.5  5 2 4.5  5 2.25 4.5  4.75 2.25 4.5  4.75 2.5 4.25  4.75 2.5 4.5  3.5 2.25 4.75  3.25 2.25 4.75  3.5 2.5 4.75  3.5 2.5 5  3.5 2 4.75  3.5 2 5  3.5 2.25 5  3 2 5  3.25 2.25 5  3.25 2 5  3.25 2.5 4.75  3 2.25 5  3 2.25 4.75  3 2.5 5  3.25 2.5 5  3 2.5 4.75  3.75 2.25 4.75  4 2.25 4.75  4 2.5 4.75  4 2.5 5  3.75 2 4.75  4 2 4.75  4 2 5  4 2.25 5  3.75 2.25 5  3.75 2 5  3.75 2.5 4.75  3.75 2.5 5  4.5 2.25 4.75  4.25 2.25 4.75  4.5 2.5 4.75  4.5 2.5 5  4.5 2 5  4.5 2.25 5  4.25 2.25 5  4.25 2.5 4.75  4.25 2.5 5  5 2.25 4.75  4.75 2.25 4.75  5 2.5 4.75  5 2.5 5  5 2 4.75  5 2 5  5 2.25 5  4.75 2.25 5  4.75 2 5  4.75 2.5 4.75  4.75 2.5 5  3.25 2.75 0.25  3.25 2.75 0  3.5 2.75 0.25  3.5 2.75 0  3.5 3 0  3.5 3 0.25  3.5 3 0.5  3.5 2.75 0.5  3.25 2.75 0.5  3 3 0  3.25 3 0.25  3.25 3 0  3 3 0.5  3.25 3 0.5  3 3 0.25  3.75 2.75 0.25  3.75 2.75 0  4 2.75 0.25  4 2.75 0  4 3 0  4 3 0.25  4 3 0.5  4 2.75 0.5  3.75 2.75 0.5  3.75 3 0.25  3.75 3 0  3.75 3 0.5  4.25 2.75 0.25  4.25 2.75 0  4.5 2.75 0.25  4.5 2.75 0  4.5 3 0  4.5 3 0.25  4.5 3 0.5  4.5 2.75 0.5  4.25 2.75 0.5  4.25 3 0.25  4.25 3 0  4.25 3 0.5  4.75 2.75 0.25  4.75 2.75 0  5 2.75 0.25  5 2.75 0  5 3 0  5 3 0.25  5 3 0.5  5 2.75 0.5  4.75 2.75 0.5  4.75 3 0.25  4.75 3 0  4.75 3 0.5  3.25 3.25 0.25  3.25 3.25 0  3.5 3.25 0.25  3.5 3.25 0  3.5 3.5 0  3.5 3.5 0.25  3.5 3.5 0.5  3.5 3.25 0.5  3.25 3.25 0.5  3 3.25 0  3 3.5 0  3.25 3.5 0.25  3.25 3.5 0  3.25 3.5 0.5  3.75 3.25 0.25  3.75 3.25 0  4 3.25 0.25  4 3.25 0  4 3.5 0  4 3.5 0.25  4 3.5 0.5  4 3.25 0.5  3.75 3.25 0.5  3.75 3.5 0.25  3.75 3.5 0  3.75 3.5 0.5  4.25 3.25 0.25  4.25 3.25 0  4.5 3.25 0.25  4.5 3.25 0  4.5 3.5 0  4.5 3.5 0.25  4.5 3.5 0.5  4.5 3.25 0.5  4.25 3.25 0.5  4.25 3.5 0.25  4.25 3.5 0  4.25 3.5 0.5  4.75 3.25 0.25  4.75 3.25 0  5 3.25 0.25  5 3.25 0  5 3.5 0  5 3.5 0.25  5 3.5 0.5  5 3.25 0.5  4.75 3.25 0.5  4.75 3.5 0.25  4.75 3.5 0  4.75 3.5 0.5  3.25 3.75 0.25  3.25 3.75 0  3.5 3.75 0.25  3.5 3.75 0  3.5 4 0  3.5 4 0.25  3.5 4 0.5  3.5 3.75 0.5  3.25 3.75 0.5  3 3.75 0  3 4 0  3.25 4 0.25  3.25 4 0  3 4 0.5  3.25 4 0.5  3.75 3.75 0.25  3.75 3.75 0  4 3.75 0.25  4 3.75 0  4 4 0  4 4 0.25  4 4 0.5  4 3.75 0.5  3.75 3.75 0.5  3.75 4 0.25  3.75 4 0  3.75 4 0.5  4.25 3.75 0.25  4.25 3.75 0  4.5 3.75 0.25  4.5 3.75 0  4.5 4 0  4.5 4 0.25  4.5 4 0.5  4.5 3.75 0.5  4.25 3.75 0.5  4.25 4 0.25  4.25 4 0  4.25 4 0.5  4.75 3.75 0.25  4.75 3.75 0  5 3.75 0.25  5 3.75 0  5 4 0  5 4 0.25  5 4 0.5  5 3.75 0.5  4.75 3.75 0.5  4.75 4 0.25  4.75 4 0  4.75 4 0.5  3.25 4.25 0.25  3.25 4.25 0  3.5 4.25 0.25  3.5 4.25 0  3.5 4.5 0  3.5 4.5 0.25  3.5 4.5 0.5  3.5 4.25 0.5  3.25 4.25 0.5  3 4.25 0  3 4.5 0  3.25 4.5 0.25  3.25 4.5 0  3 4.25 0.5  3 4.5 0.5  3.25 4.5 0.5  3 4.5 0.25  3.75 4.25 0.25  3.75 4.25 0  4 4.25 0.25  4 4.25 0  4 4.5 0  4 4.5 0.25  4 4.5 0.5  4 4.25 0.5  3.75 4.25 0.5  3.75 4.5 0.25  3.75 4.5 0  3.75 4.5 0.5  4.25 4.25 0.25  4.25 4.25 0  4.5 4.25 0.25  4.5 4.25 0  4.5 4.5 0  4.5 4.5 0.25  4.5 4.5 0.5  4.5 4.25 0.5  4.25 4.25 0.5  4.25 4.5 0.25  4.25 4.5 0  4.25 4.5 0.5  4.75 4.25 0.25  4.75 4.25 0  5 4.25 0.25  5 4.25 0  5 4.5 0  5 4.5 0.25  5 4.5 0.5  5 4.25 0.5  4.75 4.25 0.5  4.75 4.5 0.25  4.75 4.5 0  4.75 4.5 0.5  3.25 4.75 0.25  3.25 4.75 0  3.5 4.75 0.25  3.5 4.75 0  3.5 5 0  3.5 5 0.25  3.5 5 0.5  3.5 4.75 0.5  3.25 4.75 0.5  3 4.75 0  3 5 0  3.25 5 0.25  3.25 5 0  3 4.75 0.25  3 4.75 0.5  3 5 0.5  3.25 5 0.5  3 5 0.25  3.75 4.75 0.25  3.75 4.75 0  4 4.75 0.25  4 4.75 0  4 5 0  4 5 0.25  4 5 0.5  4 4.75 0.5  3.75 4.75 0.5  3.75 5 0.25  3.75 5 0  3.75 5 0.5  4.25 4.75 0.25  4.25 4.75 0  4.5 4.75 0.25  4.5 4.75 0  4.5 5 0  4.5 5 0.25  4.5 5 0.5  4.5 4.75 0.5  4.25 4.75 0.5  4.25 5 0.25  4.25 5 0  4.25 5 0.5  4.75 4.75 0.25  4.75 4.75 0  5 4.75 0.25  5 4.75 0  5 5 0  5 5 0.25  5 5 0.5  5 4.75 0.5  4.75 4.75 0.5  4.75 5 0.25  4.75 5 0  4.75 5 0.5  3.5 2.75 0.75  3.25 2.75 0.75  3.5 3 0.75  3.5 3 1  3.5 2.75 1  3.25 3 0.75  3.75 2.75 0.75  4 2.75 0.75  4 3 0.75  4 3 1  4 2.75 1  3.75 2.75 1  3.75 3 0.75  3.75 3 1  4.25 2.75 0.75  4.5 2.75 0.75  4.5 3 0.75  4.5 3 1  4.5 2.75 1  4.25 2.75 1  4.25 3 0.75  4.25 3 1  4.75 2.75 0.75  5 2.75 0.75  5 3 0.75  5 3 1  5 2.75 1  4.75 2.75 1  4.75 3 0.75  4.75 3 1  3.25 3.25 0.75  3.5 3.25 0.75  3.5 3.5 0.75  3.5 3.5 1  3.5 3.25 1  3.25 3.25 1  3.25 3.5 0.75  3 3.5 1  3.25 3.5 1  3.75 3.25 0.75  4 3.25 0.75  4 3.5 0.75  4 3.5 1  4 3.25 1  3.75 3.25 1  3.75 3.5 0.75  3.75 3.5 1  4.25 3.25 0.75  4.5 3.25 0.75  4.5 3.5 0.75  4.5 3.5 1  4.5 3.25 1  4.25 3.25 1  4.25 3.5 0.75  4.25 3.5 1  4.75 3.25 0.75  5 3.25 0.75  5 3.5 0.75  5 3.5 1  5 3.25 1  4.75 3.25 1  4.75 3.5 0.75  4.75 3.5 1  3.5 3.75 0.75  3.25 3.75 0.75  3.5 4 0.75  3.5 4 1  3.5 3.75 1  3.25 3.75 1  3.25 4 0.75  3 4 1  3.25 4 1  3 4 0.75  3.75 3.75 0.75  4 3.75 0.75  4 4 0.75  4 4 1  4 3.75 1  3.75 3.75 1  3.75 4 0.75  3.75 4 1  4.25 3.75 0.75  4.5 3.75 0.75  4.5 4 0.75  4.5 4 1  4.5 3.75 1  4.25 3.75 1  4.25 4 0.75  4.25 4 1  4.75 3.75 0.75  5 3.75 0.75  5 4 0.75  5 4 1  5 3.75 1  4.75 3.75 1  4.75 4 0.75  4.75 4 1  3.25 4.25 0.75  3.5 4.25 0.75  3.5 4.5 0.75  3.5 4.5 1  3.5 4.25 1  3.25 4.25 1  3.25 4.5 0.75  3 4.5 1  3.25 4.5 1  3 4.5 0.75  3.75 4.25 0.75  4 4.25 0.75  4 4.5 0.75  4 4.5 1  4 4.25 1  3.75 4.25 1  3.75 4.5 0.75  3.75 4.5 1  4.25 4.25 0.75  4.5 4.25 0.75  4.5 4.5 0.75  4.5 4.5 1  4.5 4.25 1  4.25 4.25 1  4.25 4.5 0.75  4.25 4.5 1  4.75 4.25 0.75  5 4.25 0.75  5 4.5 0.75  5 4.5 1  5 4.25 1  4.75 4.25 1  4.75 4.5 0.75  4.75 4.5 1  3.25 4.75 0.75  3.5 4.75 0.75  3.5 5 0.75  3.5 5 1  3.5 4.75 1  3.25 4.75 1  3.25 5 0.75  3 4.75 0.75  3 4.75 1  3 5 1  3.25 5 1  3 5 0.75  3.75 4.75 0.75  4 4.75 0.75  4 5 0.75  4 5 1  4 4.75 1  3.75 4.75 1  3.75 5 0.75  3.75 5 1  4.25 4.75 0.75  4.5 4.75 0.75  4.5 5 0.75  4.5 5 1  4.5 4.75 1  4.25 4.75 1  4.25 5 0.75  4.25 5 1  4.75 
[...]
<PointData  Vectors="u"> 
<DataArray  type="Float64"  Name="u"  NumberOfComponents="3" format="ascii">1.9999999992345730e+02 2.0939734443722636e-10 1.5266415611386517e-09  1.9999999992227691e+02 -2.3710760705580217e-12 -4.7849008379311267e-11  1.9999999992219429e+02 -6.2291989597375586e-11 -5.7412191567120072e-11  1.9999999992728269e+02 -2.8890753303465414e-10 -6.7751677004038000e-10  1.9999999992310023e+02 1.3226736385261968e-10 2.1382951952590296e-10  1.9999999993154648e+02 4.6911479223664476e-10 3.0953487407522234e-09  1.9999999992736542e+02 -9.5007266261969265e-10 -7.5658782838564994e-10  1.9999999992749082e+02 -3.8798676187968120e-10 2.9505308273208114e-10  1.9999999993096739e+02 -1.1122101550572618e-10 -2.6572598555713352e-10  1.9999999993126880e+02 4.0753814453610877e-10 7.0131302616542662e-10  1.9999999992759967e+02 -1.1313367011991076e-10 1.2562620686216022e-10  1.9999999994643781e+02 3.8340836775916648e-10 3.4143790206670055e-09  1.9999999994647592e+02 -4.4628060373363889e-10 -3.8968325354851755e-10  1.9999999994601785e+02 -7.8922334628604551e-10 -1.2869316967819150e-09  1.9999999995001801e+02 -5.0479531188213373e-10 -4.9520432175459010e-10  1.9999999994641777e+02 4.5973234472757254e-10 8.5652140000203971e-10  1.9999999995312902e+02 4.7343335353632463e-10 3.4693859349987869e-09  1.9999999995022591e+02 -6.4249786962281797e-10 -1.1119783575198444e-09  1.9999999995012388e+02 -7.1100060701278834e-10 4.2952485710337213e-10  1.9999999995045090e+02 -8.9714009942976857e-10 -2.6692676954731829e-09  1.9999999993912297e+02 4.9729653522971188e-10 3.2939956533102087e-09  1.9999999993758266e+02 -2.8176095134487957e-10 -7.3327153022909303e-10  1.9999999993822900e+02 -1.3463137980069874e-10 2.2497503594263276e-10  1.9999999994206092e+02 -2.5854152659996731e-11 -5.8387483567470321e-10  1.9999999994143877e+02 -8.1099595877908409e-10 -2.4446841818170146e-09  1.9999999993902134e+02 5.0544719355652843e-10 3.4143447366093904e-09  1.9999999993849519e+02 -4.6435002850582782e-10 -3.3677760179116657e-10  1.9999999993881994e+02 4.8043844405983215e-10 7.8195659265543171e-10  1.9999999993900843e+02 2.8976211429480232e-10 7.6211676421994285e-10  1.9999999993844762e+02 -8.9293957580290993e-11 1.7524177454152763e-10  1.9999999994200166e+02 -1.0497948199583688e-10 -7.7338429431825374e-10  1.9999999994188008e+02 -8.8710737624698774e-10 -8.0191928275078412e-10  1.9999999994208596e+02 -3.2689572031770667e-10 4.1089883193459043e-10  1.9999999994232843e+02 -6.4041521414532001e-10 1.8251298668383347e-10  1.9999999993456470e+02 -3.2572862053651180e-10 -6.4898911905304721e-10  1.9999999993388633e+02 -1.0531295870489789e-09 -2.2428415931914927e-09  1.9999999993471971e+02 -3.1341232883824214e-10 2.2430478377773493e-10  1.9999999993043249e+02 -5.6863162381520122e-10 -8.3302558707086636e-10  1.9999999993087656e+02 -4.1862401216081085e-10 2.4997512814578498e-10  1.9999999993155930e+02 4.8897020507244355e-10 3.2435754874962323e-09  1.9999999993116415e+02 -5.6529254221240173e-10 -2.5352203835333353e-10  1.9999999993125834e+02 4.0752256597750358e-10 6.7619627696344797e-10  1.9999999993093613e+02 -2.4682007325490704e-10 8.2593861589376186e-11  1.9999999993435051e+02 -5.5666053243155987e-10 -6.6399487354147875e-10  1.9999999993475416e+02 -1.1480410405900907e-10 1.9262261791735080e-10  1.9999999993410538e+02 -6.7362323857185463e-10 -7.2922294618412257e-10  1.9999999993451149e+02 -2.9570421033230638e-10 1.7095124580284760e-10  1.9999999993470394e+02 -3.9342555820624620e-10 2.8575421054270416e-10  1.9999999992709735e+02 -4.0020314371336608e-10 -7.0978349515669247e-10  1.9999999992682575e+02 -1.0256451333530098e-09 -1.7387081505558783e-09  1.9999999992214114e+02 -1.9023006329526457e-11 -1.5342215107539119e-10  1.9999999992242118e+02 -1.2628575977908089e-10 -5.1532294991008417e-10  1.9999999992351582e+02 2.2841968277468213e-10 1.6174890906067122e-09  1.9999999992268570e+02 -6.3365512407535503e-10 -1.4012258022520722e-11  1.9999999992322873e+02 1.6686173638310441e-10 2.5827055334750838e-10  1.9999999992232566e+02 -1.5244946686591243e-10 2.2094090431441856e-10  1.9999999992719040e+02 -5.5864718123011950e-10 -9.9487782149138182e-10  1.9999999992707947e+02 -8.5288175799518172e-10 -7.9507101795548396e-10  1.9999999992736730e+02 -3.1982681639798306e-10 3.7818835736504268e-10  1.9999999992736693e+02 -4.5630762806751236e-10 5.5559512218821625e-11  1.9999999992697940e+02 -1.0743715098059684e-09 -4.8717731821157805e-10  1.9999999992701547e+02 -3.4626642122613831e-10 -4.0008150758375340e-10  1.9999999992240598e+02 -1.7395905190667507e-11 -4.0186190882391057e-11  1.9999999992298956e+02 1.0619106269706964e-10 1.1627638391623980e-10  1.9999999993118507e+02 2.7501074738275132e-10 4.0753848387405317e-10  1.9999999992713825e+02 2.1437596687163796e-11 1.7380705093601605e-11  1.9999999992702465e+02 -3.8913963172878134e-10 -9.2453879671168226e-10  1.9999999993080050e+02 -9.6163186046506457e-11 3.8524484325482546e-11  1.9999999993767184e+02 -3.6066386837748088e-10 -4.3431204404296716e-10  1.9999999994198464e+02 -1.2139962155680021e-10 -2.5736496299415559e-10  1.9999999993842221e+02 -3.8093523475109344e-10 8.5176817151310632e-11  1.9999999993881252e+02 6.1844979569320060e-10 3.9651917116290331e-10  1.9999999993903333e+02 3.4170469109350276e-10 4.9496993510059728e-10  1.9999999993845057e+02 -3.9974822470975777e-10 2.3410235528055142e-11  1.9999999994188832e+02 -4.2139865263278447e-10 -7.6547316050814631e-10  1.9999999994209074e+02 -5.4770959832042222e-10 -5.6254102940781224e-10  1.9999999994615308e+02 4.8390638886518129e-10 7.2058507946716943e-10  1.9999999994226536e+02 -3.1077098154707748e-10 1.7419366472813097e-10  1.9999999994619131e+02 -4.4833625068965565e-10 2.1532297951489947e-10  1.9999999993445709e+02 -4.3599129570246679e-10 -3.6305629635918107e-10  1.9999999993000358e+02 -6.6696868303420502e-10 -3.9608355926774320e-10  1.9999999993076742e+02 -4.4144774377764899e-10 -1.6417579425840624e-10  1.9999999993112283e+02 3.8403668652532748e-10 3.9717835783118253e-10  1.9999999993089025e+02 -3.4011519707098554e-10 -1.1015818529137117e-10  1.9999999993432544e+02 -6.1647303129569478e-10 -6.5021754276790510e-10  1.9999999993469490e+02 -1.2000588737959015e-10 -7.2017541251922608e-11  1.9999999993420661e+02 -7.1661958814381869e-10 -5.3817291921565855e-10  1.9999999993452235e+02 -4.7901070090326727e-10 1.5829009941686622e-10  1.9999999992701305e+02 -5.0469377859062220e-10 -3.9905575902219869e-10  1.9999999992175074e+02 1.5204692007030858e-10 -6.3823283664286178e-11  1.9999999992240603e+02 -8.0590509296273307e-10 -6.6793629324125273e-11  1.9999999992306206e+02 1.4902899521272218e-10 1.2584065978625032e-10  1.9999999992217550e+02 -1.3583205329380817e-10 4.1741229546791887e-11  1.9999999992697988e+02 -6.7831666597899826e-10 -9.2893846754113191e-10  1.9999999992706927e+02 -7.0383056155461157e-10 -5.2063097926572336e-10  1.9999999992727743e+02 -4.3994890552309113e-10 6.6530833465864125e-11  1.9999999993420212e+02 -1.1511469091866331e-09 -4.1984653227635126e-10  1.9999999993434395e+02 -2.0872502373253622e-10 -1.9910651127724531e-10  1.9999999993089457e+02 -1.7086616418994901e-10 -3.2332751723249983e-10  1.9999999993103796e+02 1.6053853921813341e-10 3.4072999593694893e-10  1.9999999993854104e+02 -2.3647386825291636e-10 -7.8401457919083600e-11  1.9999999993905831e+02 2.3785551619244141e-10 3.9035243335873934e-10  1.9999999993452815e+02 -3.1600057374487090e-10 -5.2961698387173513e-11  1.9999999992688484e+02 -8.4301389414998832e-10 -4.8061021390860558e-10  1.9999999992693239e+02 -3.1833663448350156e-10 -4.8848756295353670e-10  1.9999999992207592e+02 -5.0875957932031431e-11 1.5080997252145930e-11  1.9999999992296779e+02 1.1948120241612625e-10 1.0988763678875999e-10  1.9999999992721473e+02 -7.7776254454673780e-11 -2.0090434900940437e-10  1.9999999993771465e+02 -4.3696926346154009e-10 -4.5114930824418607e-10  1.9999999994193152e+02 -1.4565040659815875e-10 -3.4086845997659689e-10  1.9999999993847990e+02 -4.4657773840603029e-10 -2.6188265994414721e-11  1.9999999993881698e+02 5.5887105779693412e-10 3.3793164837862027e-10  1.9999999993860351e+02 -1.9539758956664539e-10 -9.3429749363247291e-11  1.9999999994608748e+02 5.3193639598790883e-10 4.5196424381022481e-10  1.9999999994187149e+02 -4.4688594118714496e-10 -9.8927400381805795e-10  1.9999999994216017e+02 -2.2442789413961460e-10 6.2905497025497659e-11  1.9999999994185438e+02 -6.5188160400052350e-10 -5.1856723228968057e-10  1.9999999994596348e+02 -1.2077662990525225e-10 -3.8701295868597846e-10  1.9999999994606733e+02 6.2168633230628185e-10 5.3077180919445545e-10  1.9999999994230475e+02 -1.8959816775037984e-10 7.6686948307922964e-12  1.9999999994609232e+02 -3.6989029554787659e-10 -1.0159647425734342e-10  1.9999999993426781e+02 -3.3826506763353322e-10 -3.9382779372682270e-10  1.9999999993021308e+02 -6.9660618226746820e-10 -5.1323687621431149e-10  1.9999999993071248e+02 -4.1403469699268636e-10 -1.2468809394936335e-10  1.9999999993096438e+02 4.0011620659522956e-10 3.7185403744856033e-10  1.9999999993080269e+02 -2.2215943280803337e-10 -8.8324760717530759e-11  1.9999999993415832e+02 -4.6336568550418730e-10 -1.0336915389340758e-09  1.9999999993410290e+02 -7.6588986991353953e-10 -4.2065907429113221e-10  1.9999999993438269e+02 -4.6221717350855165e-10 -2.6723653346252772e-11  1.9999999992684357e+02 -5.5337699724719419e-10 -4.6254213755890177e-10  1.9999999992168210e+02 1.7502636163599555e-10 6.2453652738299813e-11  1.9999999992221134e+02 -7.2434554611578909e-10 2.4894501112188782e-11  1.9999999992306505e+02 1.0971961718087011e-10 8.6329023743423766e-11  1.9999999992208024e+02 -1.2038736285783244e-10 4.3483380487808764e-11  1.9999999992701652e+02 -6.3565836441961670e-10 -1.2747892027406589e-09  1.9999999992700504e+02 -8.1502117313484514e-10 -5.7710359132203869e-10  1.9999999992725972e+02 -4.1609806908754650e-10 -8.6296975058351473e-11  1.9999999993417424e+02 -9.9506001339263508e-10 -6.5236372558823466e-10  1.9999999993451209e+02 -2.0713048455852042e-10 -6.0545391457113826e-10  1.9999999993074590e+02 -2.1819085675929222e-10 -1.0608828372230553e-10  1.9999999993109924e+02 2.8435638814992054e-10 2.5513003210504733e-10  1.9999999993838753e+02 -4.7047585854765862e-11 -2.3518892514506190e-10  1.9999999993890981e+02 3.5758180721036504e-10 3.1968703833450235e-10  1.9999999993454713e+02 -1.0614228446617996e-10 -1.0183009473836239e-10  1.9999999994179666e+02 -2.1443648548746427e-10 -2.3746680596871452e-10  1.9999999993775796e+02 -6.0656303216003274e-10 -6.3065306769169896e-10  1.9999999993840930e+02 -2.5984229102208915e-10 -5.1214965180976047e-10  1.9999999993860609e+02 6.0932800581969743e-10 4.8013302818233733e-10  1.9999999993830272e+02 -3.1850757645704558e-10 -3.5664110186122692e-11  1.9999999994179740e+02 -3.6460509916591407e-10 -9.7782288779776282e-10  1.9999999994173353e+02 -5.9192327188688784e-10 -5.8996607695042340e-10  1.9999999994598994e+02 6.2738619702537773e-10 3.3256481131869372e-10  1.9999999994215750e+02 -2.6166993944598454e-10 -3.6767133461301773e-11  1.9999999994600196e+02 -2.3851822454472814e-10 -7.3508269585885180e-11  1.9999999993433656e+02 -4.6532132065229063e-10 -5.2710478115125846e-10  1.9999999992995518e+02 -4.8305744591200455e-10 -5.8268577974546960e-10  1.9999999993069119e+02 -3.2332355426656505e-10 -2.9925023414433232e-11  1.9999999993100951e+02 4.2750942572093596e-10 3.0156217393816460e-10  1.9999999993071899e+02 -2.1348112776290969e-10 -3.7094837064006530e-11  1.9999999993431172e+02 -5.5041217783257075e-10 -7.0001744982010729e-10  1.9999999993429117e+02 -4.8137918004118668e-10 -6.8750618638977551e-10  1.9999999993471599e+02 -3.5393979717853031e-10 1.8133698166443362e-11  1.9999999992685181e+02 -5.1358116865999257e-10 -4.2797510093544521e-10  1.9999999992181472e+02 8.8080780911862458e-11 3.3177420387660532e-11  1.9999999992242036e+02 -7.4598849590939393e-10 -1.7069271827163922e-11  1.9999999992300800e+02 1.1200815726476736e-10 1.3857930891047280e-10  1.9999999992678732e+02 -6.6561656808889013e-10 -5.1142338082426329e-10  1.9999999992695288e+02 -4.4182241888478140e-10 -1.0843371375366769e-09  1.9999999992715024e+02 -5.1889278641225410e-10 4.9320607804457075e-11  1.9999999993421716e+02 -7.6279464513308335e-10 -5.3385343830326282e-10  1.9999999993435677e+02 -3.2402405761685194e-10 -3.4603576789068277e-10  1.9999999993068113e+02 -2.4963579466098479e-10 -2.4115953766230703e-10  1.9999999993111308e+02 6.5577036582902910e-11 2.4787523985538383e-10  1.9999999993853811e+02 3.5040869028703775e-11 -2.3712322693260327e-10  1.9999999993886667e+02 4.3065635472097320e-10 3.7546715171626827e-10  1.9999999993454296e+02 -2.2041503109070649e-10 -2.2160338520863762e-10  1.9999999993764726e+02 -4.4955846984541391e-10 -4.1259518844600244e-10  1.9999999994192586e+02 -2.1814713810389125e-10 -4.2170055376347204e-10  1.9999999993848658e+02 -3.9574384759355118e-10 4.2709739134652323e-11  1.9999999993874493e+02 5.5407526635032542e-10 2.0463682574018199e-10  1.9999999993840041e+02 -3.3497638890607257e-10 -2.9706828941615563e-10  1.9999999994202656e+02 -3.6080678246810439e-10 -9.3061139981073031e-10  1.9999999994194994e+02 -7.0200650453545400e-10 -7.5617664645332047e-10  1.9999999994588191e+02 6.6907749683370643e-10 6.0946422711302128e-10  1.9999999994235733e+02 -3.6163570667213496e-10 -3.3959724214033908e-11  1.9999999993425195e+02 -3.4219066396291988e-10 -3.9421579631267348e-10  1.9999999992981088e+02 -4.0924667615049318e-10 -7.5729103473401505e-10  1.9999999993059365e+02 -4.6898079469497838e-10 -1.5813545470687963e-10  1.9999999993111649e+02 5.4245050263350254e-10 2.9992520902900399e-10  1.9999999993067092e+02 -2.1025017873218087e-10 -8.1404463475489223e-11  1.9999999993400903e+02 -3.8587945221011554e-10 -1.2488301878627325e-09  1.9999999993415310e+02 -7.8886087614012514e-10 -5.7960025615072501e-10  1.9999999993433445e+02 -4.2143059596141008e-10 -1.6876252631126384e-10  1.9999999992211107e+02 -7.6574191414412163e-10 1.0007083981316635e-10  1.9999999992175765e+02 7.6053188468534838e-11 -1.6109842177058119e-11  1.9999999992688942e+02 -3.9782211949104710e-10 -4.4967668228051031e-10  1.9999999992290014e+02 1.8630094898603054e-10 7.7438375209866312e-11  1.9999999992689538e+02 -6.5624230480342707e-10 -6.4514989951508828e-10  1.9999999992707808e+02 -3.9615272306746963e-10 -9.4566269897653693e-10  1.9999999992707620e+02 -4.8173792820963851e-10 2.5677965153197808e-11  1.9999999993736913e+02 -5.5456220182643906e-10 -3.6166020681188041e-10  1.9999999994181385e+02 -2.3575629541699375e-10 -2.9536325923215326e-10  1.9999999993833134e+02 -3.2152972270880492e-10 -3.6694926301723700e-10  1.9999999993871182e+02 4.6433752219113774e-10 6.1214193554173501e-10  1.9999999994165930e+02 -5.6089353487401258e-10 -5.1769220194441508e-10  1.9999999993428290e+02 -4.3494983798788171e-10 -2.7052456417312646e-10  1.9999999993024213e+02 -3.1026458675971454e-10 -3.4843255331789127e-10  1.9999999993088247e+02 -3.5927131954907343e-10 -4.3365199460430018e-11  1.9999999993098245e+02 4.4292856971529615e-10 2.1567211216271738e-10  1.9999999993076750e+02 -1.3155849995699017e-10 -1.8261987715700409e-10  1.9999999993398370e+02 -3.0111074688005117e-10 -9.5001050612573841e-10  1.9999999993423884e+02 -3.0284616355128148e-10 -4.6337109591466322e-10  1.9999999993449592e+02 -4.1202908477801629e-10 5.9506444071021261e-11  1.9999999992213407e+02 -6.8789033397786081e-10 -2.1552390060279445e-11  1.9999999992166968e+02 6.1781269378160695e-11 -1.0291326059851487e-11  1.9999999992677189e+02 -3.7334802810619126e-10 -3.9272173331224796e-10  1.9999999992290978e+02 1.2896954222388543e-10 1.2828225845841713e-10  1.9999999992315028e+02 1.3611886394639627e-10 1.3151535012742644e-10  1.9999999992199730e+02 -1.2828770799181295e-10 1.2514412446337634e-10  1.9999999992685360e+02 -4.2891841459941103e-10 -1.0986559247048036e-09  1.9999999992669359e+02 -7.6628055084705046e-10 -5.3152842986812410e-10  1.9999999992707387e+02 -4.9759329504651012e-10 -1.8068780222819912e-11  1.9999999993071029e+02 -3.2896534016120238e-10 -1.4542438105251319e-10  1.9999999992970882e+02 -4.1304670272745428e-10 -5.0164300284311082e-10  1.9999999993405504e+02 -2.8716081654456988e-10 -2.0724401549660375e-10  1.9999999993096887e+02 4.1966982394955471e-10 3.7190001570221409e-10  1.9999999993385620e+02 -8.5571447988297052e-10 -6.4326936326671681e-10  1.9999999993830451e+02 -4.6008276639840636e-10 -8.1717841739566215e-11  1.9999999993852350e+02 3.2472346098061838e-10 2.8192196496706023e-10  1.9999999993445817e+02 -5.3459461638601690e-10 -3.9178968029606713e-11  1.9999999992161705e+02 6.5397126781390398e-11 -1.0072170078921333e-10  1.9999999992693213e+02 -2.8428697680878439e-10 -4.6385117714502054e-10  1.9999999992201376e+02 -7.8252399253913780e-10 -3.9257020106472595e-11  1.9999999992281070e+02 7.8361172763049990e-11 7.9941442812032780e-11  1.9999999992678326e+02 -6.2615725294843358e-10 -4.7413587427489751e-10  1.9999999992697701e+02 -5.6101729296449612e-10 -1.1424355241772731e-10  1.9999999994597729e+02 6.0298451194694612e-10 6.4254999912576834e-10  1.9999999994607990e+02 -8.7624653412461887e-10 -8.5216544915268505e-10  1.9999999994597442e+02 -1.3040598931987606e-10 -3.5343827485965825e-10  1.9999999994962340e+02 -2.1934590012147001e-10 -4.1752790396000311e-10  1.9999999994598622e+02 6.2513374622404132e-10 5.2022185598027280e-10  1.9999999994600915e+02 -3.1363711294516164e-10 -5.0663068193761452e-11  1.9999999994602365e+02 5.0662583759116311e-10 4.8575283541436208e-10  1.9999999994591218e+02 -4.3577984404712924e-10 -1.0013753982250118e-10  1.9999999994596962e+02 6.1983643783693042e-10 4.6399171529250219e-10  1.9999999994593509e+02 -2.7147077275827378e-10 -5.0626703784287199e-10  1.9999999995296835e+02 5.5375627275896559e-10 4.6280788044852436e-10  1.9999999994992476e+02 -5.6028359241763161e-10 -8.6941507840089442e-10  1.9999999994975474e+02 7.4961284312908063e-11 5.6145047204083510e-12  1.9999999994991197e+02 -6.2603966494806856e-10 -7.1486632435203262e-10  1.9999999995301789e+02 5.9190158923322099e-10 4.5266940698507888e-10  1.9999999994965603e+02 -5.0721516686489420e-10 1.2463875219159067e-10  1.9999999993826390e+02 -3.0837824721084162e-10 -5.9653813109372616e-10  1.9999999993718393e+02 -4.8405573417876786e-10 -6.1247879638926374e-10  1.9999999994165898e+02 -1.8555031402364742e-10 -3.6693128952471991e-10  1.9999999993863293e+02 4.8383936049019623e-10 4.9202108378677026e-10  1.9999999993870358e+02 4.6144275458442604e-10 3.9789283494879382e-10  1.9999999993834965e+02 -3.7515936386864382e-10 8.8086899020573923e-11  1.9999999994154990e+02 -4.8957478693921980e-10 -1.1030470431053616e-09  1.9999999994153578e+02 -6.6163781414791669e-10 -8.0715745737171900e-10  1.9999999994222952e+02 -4.4638783349200499e-10 8.6965271708347666e-12  1.9999999994177651e+02 -3.5549887613812868e-10 5.3772407830008199e-12  1.9999999993069193e+02 -4.3978620437968169e-10 -4.4429956139660752e-10  1.9999999993004599e+02 -5.5180720904815216e-10 -6.2275339306243692e-10  1.9999999993424572e+02 -4.3125675743624340e-10 -5.2338725327439253e-10  1.9999999993093968e+02 3.8402760152916488e-10 4.1996636309202901e-10  1.9999999993111928e+02 3.5383294729923784e-10 3.5548892278333902e-10  1.9999999993083458e+02 -3.7571337674063671e-10 -5.9054313660650574e-12  1.9999999993392780e+02 -4.6318439514505375e-10 -8.2061162369354145e-10  1.9999999993402614e+02 -4.2489359954164245e-10 -7.7651330782124452e-10  1.9999999993448264e+02 -3.8550259241111405e-10 5.5159876174736152e-11  1.9999999992679054e+02 -8.4153783704075863e-10 -5.5422463862822918e-10  1.9999999992676180e+02 -4.0217716792737387e-10 -5.0830292960305465e-10  1.9999999992208964e+02 -8.3292599526081830e-10 7.8358850006984645e-11  1.9999999992295119e+02 1.2742674788775552e-10 5.3853489124468605e-11  1.9999999992673284e+02 -4.6312868901574450e-10 -8.9939210269524910e-10  1.9999999992699986e+02 -6.9365923049700149e-10 -1.8135776552269608e-10  1.9999999994972617e+02 -1.4686184222838238e-10 -3.1272074566300660e-10  1.9999999994595794e+02 -7.0758017185043041e-10 -9.1531258