<?xml version="1.0"?>
<VTKFile type="UnstructuredGrid"  version="0.1"  >
<UnstructuredGrid>
<Piece  NumberOfPoints="9261" NumberOfCells="48000">
<Points>
<DataArray  type="Float64"  NumberOfComponents="3"  format="ascii">0 0 0  2.5 0 0  5 0 0  7.5 0 0  10 0 0  12.5 0 0  15 0 0  17.5 0 0  20 0 0  22.5 0 0  25 0 0  27.5 0 0  30 0 0  32.5 0 0  35 0 0  37.5 0 0  40 0 0  42.5 0 0  45 0 0  47.5 0 0  50 0 0  0 2.5 0  2.5 2.5 0  5 2.5 0  7.5 2.5 0  10 2.5 0  12.5 2.5 0  15 2.5 0  17.5 2.5 0  20 2.5 0  22.5 2.5 0  25 2.5 0  27.5 2.5 0  30 2.5 0  32.5 2.5 0  35 2.5 0  37.5 2.5 0  40 2.5 0  42.5 2.5 0  45 2.5 0  47.5 2.5 0  50 2.5 0  0 5 0  2.5 5 0  5 5 0  7.5 5 0  10 5 0  12.5 5 0  15 5 0  17.5 5 0  20 5 0  22.5 5 0  25 5 0  27.5 5 0  30 5 0  32.5 5 0  35 5 0  37.5 5 0  40 5 0  42.5 5 0  45 5 0  47.5 5 0  50 5 0  0 7.5 0  2.5 7.5 0  5 7.5 0  7.5 7.5 0  10 7.5 0  12.5 7.5 0  15 7.5 0  17.5 7.5 0  20 7.5 0  22.5 7.5 0  25 7.5 0  27.5 7.5 0  30 7.5 0  32.5 7.5 0  35 7.5 0  37.5 7.5 0  40 7.5 0  42.5 7.5 0  45 7.5 0  47.5 7.5 0  50 7.5 0  0 10 0  2.5 10 0  5 10 0  7.5 10 0  10 10 0  12.5 10 0  15 10 0  17.5 10 0  20 10 0  22.5 10 0  25 10 0  27.5 10 0  30 10 0  32.5 10 0  35 10 0  37.5 10 0  40 10 0  42.5 10 0  45 10 0  47.5 10 0  50 10 0  0 12.5 0  2.5 12.5 0  5 12.5 0  7.5 12.5 0  10 12.5 0  12.5 12.5 0  15 12.5 0  17.5 12.5 0  20 12.5 0  22.5 12.5 0  25 12.5 0  27.5 12.5 0  30 12.5 0  32.5 12.5 0  35 12.5 0  37.5 12.5 0  40 12.5 0  42.5 12.5 0  45 12.5 0  47.5 12.5 0  50 12.5 0  0 15 0  2.5 15 0  5 15 0  7.5 15 0  10 15 0  12.5 15 0  15 15 0  17.5 15 0  20 15 0  22.5 15 0  25 15 0  27.5 15 0  30 15 0  32.5 15 0  35 15 0  37.5 15 0  40 15 0  42.5 15 0  45 15 0  47.5 15 0  50 15 0  0 17.5 0  2.5 17.5 0  5 17.5 0  7.5 17.5 0  10 17.5 0  12.5 17.5 0  15 17.5 0  17.5 17.5 0  20 17.5 0  22.5 17.5 0  25 17.5 0  27.5 17.5 0  30 17.5 0  32.5 17.5 0  35 17.5 0  37.5 17.5 0  40 17.5 0  42.5 17.5 0  45 17.5 0  47.5 17.5 0  50 17.5 0  0 20 0  2.5 20 0  5 20 0  7.5 20 0  10 20 0  12.5 20 0  15 20 0  17.5 20 0  20 20 0  22.5 20 0  25 20 0  27.5 20 0  30 20 0  32.5 20 0  35 20 0  37.5 20 0  40 20 0  42.5 20 0  45 20 0  47.5 20 0  50 20 0  0 22.5 0  2.5 22.5 0  5 22.5 0  7.5 22.5 0  10 22.5 0  12.5 22.5 0  15 22.5 0  17.5 22.5 0  20 22.5 0  22.5 22.5 0  25 22.5 0  27.5 22.5 0  30 22.5 0  32.5 22.5 0  35 22.5 0  37.5 22.5 0  40 22.5 0  42.5 22.5 0  45 22.5 0  47.5 22.5 0  50 22.5 0  0 25 0  2.5 25 0  5 25 0  7.5 25 0  10 25 0  12.5 25 0  15 25 0  17.5 25 0  20 25 0  22.5 25 0  25 25 0  27.5 25 0  30 25 0  32.5 25 0  35 25 0  37.5 25 0  40 25 0  42.5 25 0  45 25 0  47.5 25 0  50 25 0  0 27.5 0  2.5 27.5 0  5 27.5 0  7.5 27.5 0  10 27.5 0  12.5 27.5 0  15 27.5 0  17.5 27.5 0  20 27.5 0  22.5 27.5 0  25 27.5 0  27.5 27.5 0  30 27.5 0  32.5 27.5 0  35 27.5 0  37.5 27.5 0  40 27.5 0  42.5 27.5 0  45 27.5 0  47.5 27.5 0  50 27.5 0  0 30 0  2.5 30 0  5 30 0  7.5 30 0  10 30 0  12.5 30 0  15 30 0  17.5 30 0  20 30 0  22.5 30 0  25 30 0  27.5 30 0  30 30 0  32.5 30 0  35 30 0  37.5 30 0  40 30 0  42.5 30 0  45 30 0  47.5 30 0  50 30 0  0 32.5 0  2.5 32.5 0  5 32.5 0  7.5 32.5 0  10 32.5 0  12.5 32.5 0  15 32.5 0  17.5 32.5 0  20 32.5 0  22.5 32.5 0  25 32.5 0  27.5 32.5 0  30 32.5 0  32.5 32.5 0  35 32.5 0  37.5 32.5 0  40 32.5 0  42.5 32.5 0  45 32.5 0  47.5 32.5 0  50 32.5 0  0 35 0  2.5 35 0  5 35 0  7.5 35 0  10 35 0  12.5 35 0  15 35 0  17.5 35 0  20 35 0  22.5 35 0  25 35 0  27.5 35 0  30 35 0  32.5 35 0  35 35 0  37.5 35 0  40 35 0  42.5 35 0  45 35 0  47.5 35 0  50 35 0  0 37.5 0  2.5 37.5 0  5 37.5 0  7.5 37.5 0  10 37.5 0  12.5 37.5 0  15 37.5 0  17.5 37.5 0  20 37.5 0  22.5 37.5 0  25 37.5 0  27.5 37.5 0  30 37.5 0  32.5 37.5 0  35 37.5 0  37.5 37.5 0  40 37.5 0  42.5 37.5 0  45 37.5 0  47.5 37.5 0  50 37.5 0  0 40 0  2.5 40 0  5 40 0  7.5 40 0  10 40 0  12.5 40 0  15 40 0  17.5 40 0  20 40 0  22.5 40 0  25 40 0  27.5 40 0  30 40 0  32.5 40 0  35 40 0  37.5 40 0  40 40 0  42.5 40 0  45 40 0  47.5 40 0  50 40 0  0 42.5 0  2.5 42.5 0  5 42.5 0  7.5 42.5 0  10 42.5 0  12.5 42.5 0  15 42.5 0  17.5 42.5 0  20 42.5 0  22.5 42.5 0  25 42.5 0  27.5 42.5 0  30 42.5 0  32.5 42.5 0  35 42.5 0  37.5 42.5 0  40 42.5 0  42.5 42.5 0  45 42.5 0  47.5 42.5 0  50 42.5 0  0 45 0  2.5 45 0  5 45 0  7.5 45 0  10 45 0  12.5 45 0  15 45 0  17.5 45 0  20 45 0  22.5 45 0  25 45 0  27.5 45 0  30 45 0  32.5 45 0  35 45 0  37.5 45 0  40 45 0  42.5 45 0  45 45 0  47.5 45 0  50 45 0  0 47.5 0  2.5 47.5 0  5 47.5 0  7.5 47.5 0  10 47.5 0  12.5 47.5 0  15 47.5 0  17.5 47.5 0  20 47.5 0  22.5 47.5 0  25 47.5 0  27.5 47.5 0  30 47.5 0  32.5 47.5 0  35 47.5 0  37.5 47.5 0  40 47.5 0  42.5 47.5 0  45 47.5 0  47.5 47.5 0  50 47.5 0  0 50 0  2.5 50 0  5 50 0  7.5 50 0  10 50 0  12.5 50 0  15 50 0  17.5 50 0  20 50 0  22.5 50 0  25 50 0  27.5 50 0  30 50 0  32.5 50 0  35 50 0  37.5 50 0  40 50 0  42.5 50 0  45 50 0  47.5 50 0  50 50 0  0 0 2.5  2.5 0 2.5  5 0 2.5  7.5 0 2.5  10 0 2.5  12.5 0 2.5  15 0 2.5  17.5 0 2.5  20 0 2.5  22.5 0 2.5  25 0 2.5  27.5 0 2.5  30 0 2.5  32.5 0 2.5  35 0 2.5  37.5 0 2.5  40 0 2.5  42.5 0 2.5  45 0 2.5  47.5 0 2.5  50 0 2.5  0 2.5 2.5  2.5 2.5 2.5  5 2.5 2.5  7.5 2.5 2.5  10 2.5 2.5  12.5 2.5 2.5  15 2.5 2.5  17.5 2.5 2.5  20 2.5 2.5  22.5 2.5 2.5  25 2.5 2.5  27.5 2.5 2.5  30 2.5 2.5  32.5 2.5 2.5  35 2.5 2.5  37.5 2.5 2.5  40 2.5 2.5  42.5 2.5 2.5  45 2.5 2.5  47.5 2.5 2.5  50 2.5 2.5  0 5 2.5  2.5 5 2.5  5 5 2.5  7.5 5 2.5  10 5 2.5  12.5 5 2.5  15 5 2.5  17.5 5 2.5  20 5 2.5  22.5 5 2.5  25 5 2.5  27.5 5 2.5  30 5 2.5  32.5 5 2.5  35 5 2.5  37.5 5 2.5  40 5 2.5  42.5 5 2.5  45 5 2.5  47.5 5 2.5  50 5 2.5  0 7.5 2.5  2.5 7.5 2.5  5 7.5 2.5  7.5 7.5 2.5  10 7.5 2.5  12.5 7.5 2.5  15 7.5 2.5  17.5 7.5 2.5  20 7.5 2.5  22.5 7.5 2.5  25 7.5 2.5  27.5 7.5 2.5  30 7.5 2.5  32.5 7.5 2.5  35 7.5 2.5  37.5 7.5 2.5  40 7.5 2.5  42.5 7.5 2.5  45 7.5 2.5  47.5 7.5 2.5  50 7.5 2.5  0 10 2.5  2.5 10 2.5  5 10 2.5  7.5 10 2.5  10 10 2.5  12.5 10 2.5  15 10 2.5  17.5 10 2.5  20 10 2.5  22.5 10 2.5  25 10 2.5  27.5 10 2.5  30 10 2.5  32.5 10 2.5  35 10 2.5  37.5 10 2.5  40 10 2.5  42.5 10 2.5  45 10 2.5  47.5 10 2.5  50 10 2.5  0 12.5 2.5  2.5 12.5 2.5  5 12.5 2.5  7.5 12.5 2.5  10 12.5 2.5  12.5 12.5 2.5  15 12.5 2.5  17.5 12.5 2.5  20 12.5 2.5  22.5 12.5 2.5  25 12.5 2.5  27.5 12.5 2.5  30 12.5 2.5  32.5 12.5 2.5  35 12.5 2.5  37.5 12.5 2.5  40 12.5 2.5  42.5 12.5 2.5  45 12.5 2.5  47.5 12.5 2.5  50 12.5 2.5  0 15 2.5  2.5 15 2.5  5 15 2.5  7.5 15 2.5  10 15 2.5  12.5 15 2.5  15 15 2.5  17.5 15 2.5  20 15 2.5  22.5 15 2.5  25 15 2.5  27.5 15 2.5  30 15 2.5  32.5 15 2.5  35 15 2.5  37.5 15 2.5  40 15 2.5  42.5 15 2.5  45 15 2.5  47.5 15 2.5  50 15 2.5  0 17.5 2.5  2.5 17.5 2.5  5 17.5 2.5  7.5 17.5 2.5  10 17.5 2.5  12.5 17.5 2.5  15 17.5 2.5  17.5 17.5 2.5  20 17.5 2.5  22.5 17.5 2.5  25 17.5 2.5  27.5 17.5 2.5  30 17.5 2.5  32.5 17.5 2.5  35 17.5 2.5  37.5 17.5 2.5  40 17.5 2.5  42.5 17.5 2.5  45 17.5 2.5  47.5 17.5 2.5  50 17.5 2.5  0 20 2.5  2.5 20 2.5  5 20 2.5  7.5 20 2.5  10 20 2.5  12.5 20 2.5  15 20 2.5  17.5 20 2.5  20 20 2.5  22.5 20 2.5  25 20 2.5  27.5 20 2.5  30 20 2.5  32.5 20 2.5  35 20 2.5  37.5 20 2.5  40 20 2.5  42.5 20 2.5  45 20 2.5  47.5 20 2.5  50 20 2.5  0 22.5 2.5  2.5 22.5 2.5  5 22.5 2.5  7.5 22.5 2.5  10 22.5 2.5  12.5 22.5 2.5  15 22.5 2.5  17.5 22.5 2.5  20 22.5 2.5  22.5 22.5 2.5  25 22.5 2.5  27.5 22.5 2.5  30 22.5 2.5  32.5 22.5 2.5  35 22.5 2.5  37.5 22.5 2.5  40 22.5 2.5  42.5 22.5 2.5  45 22.5 2.5  47.5 22.5 2.5  50 22.5 2.5  0 25 2.5  2.5 25 2.5  5 25 2.5  7.5 25 2.5  10 25 2.5  12.5 25 2.5  15 25 2.5  17.5 25 2.5  20 25 2.5  22.5 25 2.5  25 25 2.5  27.5 25 2.5  30 25 2.5  32.5 25 2.5  35 25 2.5  37.5 25 2.5  40 25 2.5  42.5 25 2.5  45 25 2.5  47.5 25 2.5  50 25 2.5  0 27.5 2.5  2.5 27.5 2.5  5 27.5 2.5  7.5 27.5 2.5  10 27.5 2.5  12.5 27.5 2.5  15 27.5 2.5  17.5 27.5 2.5  20 27.5 2.5  22.5 27.5 2.5  25 27.5 2.5  27.5 27.5 2.5  30 27.5 2.5  32.5 27.5 2.5  35 27.5 2.5  37.5 27.5 2.5  40 27.5 2.5  42.5 27.5 2.5  45 27.5 2.5  47.5 27.5 2.5  50 27.5 2.5  0 30 2.5  2.5 30 2.5  5 30 2.5  7.5 30 2.5  10 30 2.5  12.5 30 2.5  15 30 2.5  17.5 30 2.5  20 30 2.5  22.5 30 2.5  25 30 2.5  27.5 30 2.5  30 30 2.5  32.5 30 2.5  35 30 2.5  37.5 30 2.5  40 30 2.5  42.5 30 2.5  45 30 2.5  47.5 30 2.5  50 30 2.5  0 32.5 2.5  2.5 32.5 2.5  5 32.5 2.5  7.5 32.5 2.5  10 32.5 2.5  12.5 32.5 2.5  15 32.5 2.5  17.5 32.5 2.5  20 32.5 2.5  22.5 32.5 2.5  25 32.5 2.5  27.5 32.5 2.5  30 32.5 2.5  32.5 32.5 2.5  35 32.5 2.5  37.5 32.5 2.5  40 32.5 2.5  42.5 32.5 2.5  45 32.5 2.5  47.5 32.5 2.5  50 32.5 2.5  0 35 2.5  2.5 35 2.5  5 35 2.5  7.5 35 2.5  10 35 2.5  12.5 35 2.5  15 35 2.5  17.5 35 2.5  20 35 2.5  22.5 35 2.5  25 35 2.5  27.5 35 2.5  30 35 2.5  32.5 35 2.5  35 35 2.5  37.5 35 2.5  40 35 2.5  42.5 35 2.5  45 35 2.5  47.5 35 2.5  50 35 2.5  0 37.5 2.5  2.5 37.5 2.5  5 37.5 2.5  7.5 37.5 2.5  10 37.5 2.5  12.5 37.5 2.5  15 37.5 2.5  17.5 37.5 2.5  20 37.5 2.5  22.5 37.5 2.5  25 37.5 2.5  27.5 37.5 2.5  30 37.5 2.5  32.5 37.5 2.5  35 37.5 2.5  37.5 37.5 2.5  40 37.5 2.5  42.5 37.5 2.5  45 37.5 2.5  47.5 37.5 2.5  50 37.5 2.5  0 40 2.5  2.5 40 2.5  5 40 2.5  7.5 40 2.5  10 40 2.5  12.5 40 2.5  15 40 2.5  17.5 40 2.5  20 40 2.5  22.5 40 2.5  25 40 2.5  27.5 40 2.5  30 40 2.5  32.5 40 2.5  35 40 2.5  37.5 40 2.5  40 40 2.5  42.5 40 2.5  45 40 2.5  47.5 40 2.5  50 40 2.5  0 42.5 2.5  2.5 42.5 2.5  5 42.5 2.5  7.5 42.5 2.5  10 42.5 2.5  12.5 42.5 2.5  15 42.5 2.5  17.5 42.5 2.5  20 42.5 2.5  22.5 42.5 2.5  25 42.5 2.5  27.5 42.5 2.5  30 42.5 2.5  32.5 42.5 2.5  35 42.5 2.5  37.5 42.5 2.5  40 42.5 2.5  42.5 42.5 2.5  45 42.5 2.5  47.5 42.5 2.5  50 42.5 2.5  0 45 2.5  2.5 45 2.5  5 45 2.5  7.5 45 2.5  10 45 2.5  12.5 45 2.5  15 45 2.5  17.5 45 2.5  20 45 2.5  22.5 45 2.5  25 45 2.5  27.5 45 2.5  30 45 2.5  32.5 45 2.5  35 45 2.5  37.5 45 2.5  40 45 2.5  42.5 45 2.5  45 45 2.5  47.5 45 2.5  50 45 2.5  0 47.5 2.5  2.5 47.5 2.5  5 47.5 2.5  7.5 47.5 2.5  10 47.5 2.5  12.5 47.5 2.5  15 47.5 2.5  17.5 47.5 2.5  20 47.5 2.5  22.5 47.5 2.5  25 47.5 2.5  27
[...]
<PointData  Vectors="u"> 
<DataArray  type="Float64"  Name="u"  NumberOfComponents="3" format="ascii">2.0000000000012616e+02 1.6727637711589740e-10 1.5432090290865871e-10  1.9999999999965297e+02 1.1250031818889475e-10 1.1677813086431032e-10  1.9999999999911151e+02 7.1128710631633393e-11 7.4509133832385188e-11  1.9999999999861566e+02 7.2304480481537610e-11 8.1724554094892255e-11  1.9999999999810655e+02 9.9861898432448992e-11 1.2861288249471817e-10  1.9999999999762991e+02 6.4919224402438876e-11 1.0595945798143300e-10  1.9999999999710849e+02 6.8755211909614833e-11 9.1261343394524824e-11  1.9999999999662316e+02 7.9255299962528247e-11 1.3391444225080493e-10  1.9999999999612402e+02 8.7021539172174869e-11 1.7826290942268224e-10  1.9999999999571199e+02 5.2192955983841857e-11 8.6092624518176179e-11  1.9999999999520830e+02 1.0357346348046684e-10 9.8734514537870264e-11  1.9999999999473908e+02 8.8245880893067932e-11 7.8947486189796778e-11  1.9999999999430958e+02 1.0355725575686036e-10 8.3469794619579470e-11  1.9999999999383633e+02 8.5054871115488121e-11 9.1040726585503533e-11  1.9999999999341492e+02 6.5202729270896917e-11 1.0298786981762952e-10  1.9999999999301969e+02 9.7554732083039505e-11 8.1219857332909429e-11  1.9999999999255198e+02 1.0960649739739412e-10 6.4923714845066111e-11  1.9999999999214560e+02 7.0322143219222649e-11 7.7122240045385941e-11  1.9999999999180747e+02 5.2068012696378740e-11 9.3184041770028062e-11  1.9999999999147974e+02 9.0554686073479556e-11 9.3883367024763786e-11  1.9999999999158035e+02 -1.2831196662567883e-10 -1.2495486474424667e-10  2.0000000000008907e+02 1.4452380597198587e-10 1.0293259237245686e-10  1.9999999999961841e+02 1.0446009292122737e-10 -3.4969837004187360e-12  1.9999999999907240e+02 9.8127153103509407e-11 4.5473319115559622e-11  1.9999999999858096e+02 1.6138868240086752e-10 -1.3070531022632121e-11  1.9999999999810319e+02 1.2380056849098931e-10 8.2466066734593942e-11  1.9999999999758984e+02 1.4573172014461682e-10 1.1741894861773422e-10  1.9999999999707958e+02 1.6525257322193318e-10 1.9368564835193648e-11  1.9999999999660210e+02 1.2952760499561191e-10 1.7181982703994038e-11  1.9999999999610753e+02 1.6120877049030888e-10 8.3704827558210772e-11  1.9999999999563909e+02 1.8385253724887732e-10 -7.2840166468924521e-12  1.9999999999522356e+02 9.6337990416323017e-11 3.1169620677108479e-11  1.9999999999469898e+02 1.2656599191408377e-10 -1.1566596863407777e-12  1.9999999999425202e+02 1.2235991070189934e-10 -3.9281450667487937e-11  1.9999999999382428e+02 9.7423119146548702e-11 9.9278659784924918e-11  1.9999999999337220e+02 1.4036531953452806e-10 6.1844819698825252e-11  1.9999999999297458e+02 8.9448206459587323e-11 1.3629212920588038e-11  1.9999999999253970e+02 5.8058751738468646e-11 6.5475955817593732e-11  1.9999999999210243e+02 9.5704887311233788e-11 8.4217448439102193e-11  1.9999999999178280e+02 9.0198279384371345e-11 1.0412786444344992e-11  1.9999999999140857e+02 5.5513858348359110e-11 3.6323345962391008e-11  1.9999999999134894e+02 -6.6201664842049474e-11 -1.7820435881752500e-10  2.0000000000007515e+02 1.4466276577086901e-10 8.6259244364934584e-11  1.9999999999961562e+02 1.1662150816177789e-10 -6.9887001251034662e-12  1.9999999999908471e+02 1.0500927351649435e-10 3.8714666967415566e-11  1.9999999999860634e+02 6.1308405593354382e-11 5.8472639240185227e-11  1.9999999999809341e+02 1.0483128680659069e-10 6.2553781901240275e-11  1.9999999999761025e+02 1.5177916223420537e-10 7.4461336552417014e-11  1.9999999999705034e+02 1.1344029441030537e-10 -2.4994221424358472e-11  1.9999999999662049e+02 6.6401603105048435e-11 3.4148317309025776e-12  1.9999999999615599e+02 8.4528974954832359e-11 4.1113314055929566e-11  1.9999999999560325e+02 8.0970955363366092e-11 -1.4429036428487703e-11  1.9999999999515217e+02 7.0633277670869098e-11 -6.4956775367444608e-11  1.9999999999473877e+02 2.6517781682385669e-11 3.1793889244464561e-11  1.9999999999428442e+02 9.8165632666709377e-11 4.3219979193062741e-11  1.9999999999382425e+02 1.5224739560789032e-10 7.0140431155382750e-11  1.9999999999335401e+02 9.4895909021440638e-11 -6.6984728022819522e-11  1.9999999999294462e+02 5.4069838567592593e-11 3.8060052734477538e-11  1.9999999999255485e+02 6.6302450164749368e-11 2.4127460229678374e-11  1.9999999999214359e+02 6.3598586462145062e-11 1.8966392191411931e-11  1.9999999999170970e+02 5.4422755379147351e-11 -1.1377798968417874e-11  1.9999999999138123e+02 4.1657186438907653e-12 5.3017329807601594e-11  1.9999999999125731e+02 -7.5732288824235729e-11 -1.4520739907439413e-10  2.0000000000007176e+02 1.5503409832309993e-10 5.0107408528389093e-11  1.9999999999957654e+02 7.7831144397371006e-11 4.5752102719254418e-11  1.9999999999907678e+02 1.1721871499522381e-10 1.1537407134808734e-10  1.9999999999858565e+02 1.3645973861758613e-10 3.5570149733008176e-11  1.9999999999813792e+02 1.1565174389054207e-10 7.2168257112026353e-11  1.9999999999763310e+02 5.7256095948621531e-11 8.8818911946547255e-11  1.9999999999701450e+02 1.2771043300725908e-10 6.3104675321054152e-11  1.9999999999664064e+02 1.5066497895286964e-10 -3.7106733764767143e-11  1.9999999999607829e+02 1.1426198290231685e-10 3.9395662414011536e-12  1.9999999999562601e+02 9.2417590525434864e-11 4.2346019401028099e-11  1.9999999999515478e+02 1.0588631034445074e-10 7.9994892115615932e-11  1.9999999999472504e+02 1.4649211620977785e-10 9.2402528652078120e-11  1.9999999999430815e+02 8.6862106931152148e-11 7.5068379587240404e-11  1.9999999999383388e+02 5.7974249533150376e-11 -2.9353630511047591e-11  1.9999999999332951e+02 5.7676365126794810e-11 1.4281691969092757e-11  1.9999999999292820e+02 9.8962305131707348e-11 2.1344326700122873e-11  1.9999999999255422e+02 7.6820397095419280e-11 6.0023662085774168e-11  1.9999999999213165e+02 5.7781904577485721e-11 1.4898529467279927e-11  1.9999999999166394e+02 2.1424013137465448e-11 7.2588658332432830e-11  1.9999999999136716e+02 -8.4549023023345369e-13 3.3909469599462488e-11  1.9999999999119800e+02 -8.2392050717147904e-11 -1.3298277980435275e-10  2.0000000000003649e+02 1.2087165783705695e-10 5.2354295368752525e-11  1.9999999999958465e+02 1.4704776669848869e-10 -2.2596763405938737e-11  1.9999999999913302e+02 1.5535184469162816e-10 1.5748435241723260e-11  1.9999999999859205e+02 1.3875048757448533e-10 -3.2533051027104322e-12  1.9999999999807559e+02 1.2587312246376874e-10 5.2573353342934492e-11  1.9999999999758580e+02 9.9259472287454950e-11 -8.3916622673690798e-12  1.9999999999711761e+02 6.6824531520291364e-11 -1.1354924473623636e-10  1.9999999999658294e+02 1.3197096275306527e-10 5.0518350517177948e-11  1.9999999999609616e+02 1.1756810762652762e-10 7.5273096340682794e-11  1.9999999999563346e+02 1.1052440640213462e-10 3.1788686756702916e-11  1.9999999999515924e+02 1.2452283137946281e-10 3.4403041905988005e-12  1.9999999999472584e+02 9.0747420302033000e-11 3.5779594185880204e-11  1.9999999999425697e+02 6.8353466707402791e-11 2.8083306897863910e-11  1.9999999999380148e+02 6.8075359804488039e-11 -1.3830632651149832e-11  1.9999999999335193e+02 6.9713759058134747e-11 2.5220284698431550e-11  1.9999999999295903e+02 4.4160801547731068e-11 3.6825079894781457e-11  1.9999999999255448e+02 9.4166735160882395e-11 6.9534867247805070e-12  1.9999999999205315e+02 4.9306678814541814e-11 2.6958981534794567e-11  1.9999999999167125e+02 1.0120176644398882e-11 2.1523395973057011e-11  1.9999999999130335e+02 1.2081303909646856e-12 6.7780023179799873e-11  1.9999999999120070e+02 -7.5476076378022280e-11 -1.5086872929591642e-10  2.0000000000007111e+02 1.4409091473805977e-10 1.0150045814066753e-10  1.9999999999962208e+02 1.1474645929814616e-10 8.4561650756168203e-11  1.9999999999911378e+02 1.1375365759429863e-10 4.2835251340359809e-11  1.9999999999859389e+02 1.2605917767931945e-10 -2.3675647416622980e-11  1.9999999999807173e+02 1.3133934080196946e-10 5.7722898365273570e-11  1.9999999999754291e+02 1.1824545703988591e-10 5.7108673964576935e-11  1.9999999999709425e+02 7.9416927842608241e-11 8.8525517401177654e-11  1.9999999999664200e+02 7.7010001755723227e-11 9.3686941410970903e-12  1.9999999999607510e+02 6.1711515458777143e-11 2.4604883672075629e-11  1.9999999999562183e+02 7.8708488153361908e-11 3.6843497951123761e-11  1.9999999999517806e+02 7.2894260045820840e-11 1.6381427872996020e-11  1.9999999999468761e+02 6.9634877112533865e-11 -5.1806849224189117e-11  1.9999999999424074e+02 8.9577425549400977e-11 5.7127443431119231e-11  1.9999999999384065e+02 6.3586317183093285e-11 6.0798789603561528e-11  1.9999999999332587e+02 6.4079994053319477e-11 5.3519897667394255e-11  1.9999999999294855e+02 1.0237984639431847e-10 1.0554148632614246e-10  1.9999999999252336e+02 1.4307841169066250e-12 9.6941289380124289e-11  1.9999999999205988e+02 5.5810426682901639e-12 2.0477765887521069e-11  1.9999999999163867e+02 1.8238542793309555e-11 5.8317567286866543e-11  1.9999999999130841e+02 -2.8428745297249188e-12 -1.5633371595269910e-11  1.9999999999110102e+02 -6.1966794981699532e-11 -1.5972267796594242e-10  2.0000000000008080e+02 1.4460064587396970e-10 6.9385828171533259e-11  1.9999999999961281e+02 1.3065040292824502e-10 2.3428970736122191e-12  1.9999999999913683e+02 1.3543053787652360e-10 4.4312660402734915e-11  1.9999999999853014e+02 1.2061077501875846e-10 3.7921162152587522e-11  1.9999999999805672e+02 7.4679662668553950e-11 6.1993067951100415e-11  1.9999999999757370e+02 7.5607204762732437e-11 4.8681537101988535e-11  1.9999999999709098e+02 1.0425509381760003e-10 2.2302881676080111e-11  1.9999999999659849e+02 5.0543615501681733e-11 4.9190155741397956e-11  1.9999999999608542e+02 1.2398186698031560e-10 -1.1491679790642558e-10  1.9999999999562706e+02 9.7961246794358447e-11 4.5796241192150884e-11  1.9999999999515563e+02 1.0900058425587622e-10 1.8879477794619047e-11  1.9999999999470668e+02 9.5255806233810146e-11 5.4632126822612788e-11  1.9999999999425455e+02 7.8073556789259635e-11 3.3322647508607054e-11  1.9999999999378844e+02 6.7624414916925777e-11 2.3210270360258638e-11  1.9999999999336262e+02 4.1260891764605354e-11 2.7442813767467287e-11  1.9999999999291470e+02 1.8983904079438801e-11 1.4619048043042628e-12  1.9999999999248598e+02 1.5183894997349981e-11 2.2498250516932117e-11  1.9999999999204698e+02 4.1095201499508821e-11 7.0114713278823731e-11  1.9999999999164919e+02 1.4546916928851680e-11 5.0414772956103702e-11  1.9999999999125961e+02 1.4480324499330282e-14 5.6261434167105763e-11  1.9999999999110295e+02 -1.0012343635835658e-10 -1.2555121354619500e-10  2.0000000000009257e+02 1.3614952380549564e-10 9.8286558285010386e-11  1.9999999999959050e+02 1.1764804441516475e-10 9.3399573500383590e-11  1.9999999999909463e+02 8.2815557236487078e-11 8.0777348774685222e-11  1.9999999999856155e+02 5.0656902619453903e-11 1.1260010929035771e-10  1.9999999999808449e+02 9.3862294360829772e-11 1.7530647025008525e-11  1.9999999999758253e+02 1.2768406939877362e-10 1.0642042297892646e-10  1.9999999999706739e+02 1.2334838487342359e-10 7.1487866886893423e-11  1.9999999999652474e+02 1.3961111686566288e-10 4.0212296640318913e-11  1.9999999999616094e+02 4.0423160014378804e-12 2.4021017176019770e-11  1.9999999999563502e+02 1.0889116333479841e-10 -2.0590942814581087e-12  1.9999999999515668e+02 5.5212752535668272e-11 1.1144689964677135e-10  1.9999999999467531e+02 9.4647933067631418e-11 1.2530401374449777e-11  1.9999999999421792e+02 6.1873805205375241e-11 4.1032549512252562e-11  1.9999999999379128e+02 5.8426394740149604e-11 6.8715702375505034e-11  1.9999999999331911e+02 3.9071946121025667e-11 6.8550666548603329e-11  1.9999999999290358e+02 2.8825209465014773e-11 1.9817034778204240e-11  1.9999999999247646e+02 8.6107690586488885e-12 6.6927523122828431e-11  1.9999999999209939e+02 -2.1199550915363433e-11 5.8722351913821060e-11  1.9999999999161815e+02 1.9275599323039170e-11 6.5286933978839132e-11  1.9999999999121692e+02 1.2189661780367651e-11 2.5396429988957137e-11  1.9999999999110176e+02 -8.2479969751076581e-11 -1.2857772167752953e-10  2.0000000000008399e+02 1.4670291478402446e-10 1.0732000866224288e-10  1.9999999999965388e+02 1.3020320261213201e-10 1.3516655522676352e-11  1.9999999999904256e+02 1.4555625384480735e-10 5.8340574516688376e-11  1.9999999999858130e+02 1.3699241021631173e-10 -4.2957399995113798e-12  1.9999999999807730e+02 1.4088767221250553e-10 2.0946181614381716e-11  1.9999999999755647e+02 1.0375195753431117e-10 1.7850769742291008e-11  1.9999999999705324e+02 8.5639801733781086e-11 3.2920770228409434e-11  1.9999999999655878e+02 7.6344756762873056e-11 7.8837647467906735e-11  1.9999999999611555e+02 1.7350687319045717e-10 -3.8909101382912170e-11  1.9999999999563676e+02 6.4510158241117894e-11 6.8418593269576704e-11  1.9999999999515467e+02 8.3548512552816919e-11 1.5081998823905995e-10  1.9999999999467923e+02 3.9087169525711638e-11 1.1190766319968664e-11  1.9999999999418935e+02 5.3104947527336606e-11 2.4121727866134607e-11  1.9999999999381558e+02 2.6887460963837594e-11 3.6468152666651536e-11  1.9999999999327744e+02 5.3800480031849430e-11 2.6847129622895862e-11  1.9999999999292351e+02 4.1654565276699661e-11 4.6258893752944924e-11  1.9999999999245321e+02 5.2313285291720179e-11 5.5347879398762556e-11  1.9999999999203033e+02 1.5938325685319009e-11 8.2512600742816164e-12  1.9999999999166326e+02 -6.6471726039434200e-11 1.5589709305829705e-11  1.9999999999119336e+02 -5.9032628118796688e-11 2.5584247532639022e-11  1.9999999999106657e+02 -7.4440161220617069e-11 -1.5176846227880806e-10  2.0000000000012503e+02 1.3758129234983846e-10 1.0240878194468282e-10  1.9999999999961528e+02 5.2998768094404479e-11 5.1504207623606218e-11  1.9999999999904736e+02 8.9796768194381703e-11 6.7790512516942523e-12  1.9999999999858196e+02 1.2528995684814774e-10 2.5393760115981845e-11  1.9999999999805709e+02 1.0478739007588926e-10 4.5973688958055921e-11  1.9999999999752927e+02 1.0611364709632305e-10 5.8468851978414536e-13  1.9999999999706577e+02 8.8083661742993706e-11 -4.5847262226192104e-11  1.9999999999661333e+02 1.1068788598496320e-10 -4.4405652457812657e-11  1.9999999999605589e+02 9.9076919823145516e-11 9.8686011110163024e-11  1.9999999999563235e+02 5.9281584089689318e-11 4.5269426030134261e-11  1.9999999999512895e+02 8.5714465713803987e-11 -1.8348626854363993e-12  1.9999999999463768e+02 9.0773774085636207e-11 6.8850409844635219e-11  1.9999999999421425e+02 8.2017001833946910e-11 4.3571717330638509e-11  1.9999999999377803e+02 6.5597963270934303e-11 3.2326306125295917e-11  1.9999999999333593e+02 6.6262932564594594e-11 3.2194073199474275e-11  1.9999999999285694e+02 5.4297267678799282e-11 5.3576043879192748e-11  1.9999999999244557e+02 -1.0646522261617038e-11 3.3711951066216572e-12  1.9999999999199591e+02 -3.2231640303033990e-11 2.9401619956617008e-11  1.9999999999160636e+02 -2.3265561951590855e-11 4.0220794941673839e-11  1.9999999999120163e+02 -1.2277991708401009e-11 5.9848005276370708e-11  1.9999999999113894e+02 -8.6116889607122461e-11 -1.4804295798906449e-10  2.0000000000001648e+02 1.4886001647055979e-10 1.3156265818735273e-12  1.9999999999959286e+02 1.6498676867699802e-10 -7.2156782391518636e-11  1.9999999999909411e+02 1.1455993161831564e-10 -1.7585069527134850e-11  1.9999999999860805e+02 1.1610382933909402e-10 2.2113983390136715e-11  1.9999999999803700e+02 1.0506023159227687e-10 2.9868170362293301e-11  1.9999999999754115e+02 1.1088414730237910e-10 4.9505243464826319e-11  1.9999999999705202e+02 1.0125940737639465e-10 6.4371255084013776e-11  1.9999999999659340e+02 5.8114585795174026e-11 1.0884450819205676e-10  1.9999999999606567e+02 7.9348034529964891e-11 3.3996488442260432e-11  1.9999999999560197e+02 9.7759718364970774e-11 4.8149246476743653e-11  1.9999999999514182e+02 7.6374174745566498e-11 -2.7648644020810693e-11  1.9999999999465402e+02 6.2338255464509356e-11 8.6588589250413959e-13  1.9999999999423935e+02 3.1305791163131998e-11 -4.6484094586273480e-13  1.9999999999375004e+02 7.3891901846564422e-11 3.0758501548588296e-12  1.9999999999330007e+02 4.2884746014393994e-11 5.3966860581495542e-11  1.9999999999284279e+02 2.2472140213423247e-11 -1.0195973038366273e-11  1.9999999999242112e+02 1.3380582507257285e-11 3.6632208139114378e-11  1.9999999999197900e+02 6.3377748418956922e-12 7.3970286689433199e-11  1.9999999999162415e+02 -2.8645027064416946e-12 3.7024806305282185e-11  1.9999999999119646e+02 -1.6298727093288444e-11 4.5720825752967922e-11  1.9999999999106518e+02 -8.1137126979498554e-11 -1.2834722393009492e-10  2.0000000000013702e+02 1.6039924067492244e-10 8.0426440869137889e-11  1.9999999999960002e+02 1.2674873929520311e-10 1.0911668128303467e-11  1.9999999999906410e+02 1.0786308492526704e-10 2.0281968985657017e-11  1.9999999999858079e+02 6.6249503702110175e-11 -4.0007568105829931e-11  1.9999999999799650e+02 7.4049478851821665e-11 -4.7921762373879042e-11  1.9999999999759115e+02 4.6920842617386218e-11 1.0169956588986565e-10  1.9999999999706057e+02 1.6394390121329731e-10 6.5664712569626337e-11  1.9999999999657766e+02 1.5078943483266283e-10 -2.4063913144939161e-11  1.9999999999603725e+02 8.2075985463976157e-11 -3.6313141755268049e-11  1.9999999999564474e+02 1.0676918787215273e-10 1.2182938651950714e-10  1.9999999999502114e+02 6.4813653132976226e-11 -7.3462798532249698e-11  1.9999999999476512e+02 1.5045154517938821e-11 -4.2190885887561494e-11  1.9999999999416406e+02 1.3253414971129482e-10 -6.9246064815354007e-11  1.9999999999372582e+02 4.5776367984135593e-11 2.6823100171579096e-11  1.9999999999330939e+02 -3.4845179154631364e-12 1.2811602997766737e-11  1.9999999999285237e+02 3.4739422006629357e-12 5.1294282274550649e-11  1.9999999999237227e+02 2.1949186029744246e-11 5.7675100342911164e-11  1.9999999999200315e+02 -1.2524599647340553e-11 5.6759363934255524e-11  1.9999999999158413e+02 -1.5043523294149509e-11 5.1340367489528032e-11  1.9999999999117813e+02 -5.8696821865453392e-12 4.4830678547250821e-11  1.9999999999105384e+02 -8.4356944774881769e-11 -1.4145380840682272e-10  2.0000000000013188e+02 1.0718210977139582e-10 8.4505038657772374e-11  1.9999999999958342e+02 5.7727796091343188e-11 3.5565855398593042e-11  1.9999999999905620e+02 1.0378782722834098e-10 4.8676497141150133e-11  1.9999999999855419e+02 8.9670470621634940e-11 4.0064217441010180e-11  1.9999999999796159e+02 1.0275506136140839e-10 3.5611088754979896e-11  1.9999999999765780e+02 9.9623797976928197e-11 -1.1913519066436114e-10  1.9999999999709286e+02 7.0289259012217137e-11 1.0167296534885803e-10  1.9999999999651376e+02 9.8302328566241356e-11 7.7651866044301350e-12  1.9999999999609562e+02 9.9645967251190419e-11 2.0436112616371792e-11  1.9999999999558358e+02 1.0089325377703682e-10 4.4062253561817184e-11  1.9999999999506068e+02 9.0691958211693605e-11 1.8298006911882162e-11  1.9999999999464583e+02 1.2052174909288621e-10 2.2619378855932763e-11  1.9999999999425947e+02 2.2746906649254095e-11 -6.8628561463065778e-11  1.9999999999368248e+02 2.3325035028718026e-11 3.0454895332451841e-11  1.9999999999326593e+02 2.1096665977143324e-11 5.8855235564280280e-11  1.9999999999285592e+02 7.1052408588045060e-11 5.1092517465527407e-11  1.9999999999240819e+02 2.3933799804299185e-11 2.5132914620790070e-11  1.9999999999195771e+02 3.5369149009300163e-11 3.7946647338759844e-11  1.9999999999159110e+02 -4.1578830600732328e-12 -6.0628640821776823e-12  1.9999999999114715e+02 -1.3464541229975257e-11 7.7467755719857258e-11  1.9999999999106737e+02 -8.7102405571206471e-11 -1.5880978469967310e-10  2.0000000000011966e+02 1.4188773658710762e-10 9.2143906489467000e-11  1.9999999999955816e+02 1.1998984290042564e-10 9.0202885398418571e-12  1.9999999999907183e+02 1.0081681673577512e-10 3.9132448655829292e-11  1.9999999999852756e+02 1.0206546351959924e-10 5.2480565541988337e-11  1.9999999999814776e+02 1.4951033750607266e-10 8.5651549441154218e-11  1.9999999999752049e+02 2.5121912298276133e-10 8.4195184606288120e-11  1.9999999999706708e+02 1.3226657414314130e-10 9.4073634028714575e-11  1.9999999999654463e+02 1.1506258926417321e-10 3.5476417064089343e-11  1.9999999999604881e+02 1.2153587218934714e-10 4.1056896067749145e-11  1.9999999999560509e+02 8.4445379009440320e-11 5.2522697665460194e-11  1.