<?xml version="1.0"?>
<VTKFile type="UnstructuredGrid"  version="0.1"  >
<UnstructuredGrid>
<Piece  NumberOfPoints="3850" NumberOfCells="18761">
<Points>
<DataArray  type="Float64"  NumberOfComponents="3"  format="ascii">0 15 25  1.25 16.25 26.25  1.25 16.25 25  0 16.25 25  0 17.5 25  1.25 17.5 26.25  1.25 17.5 25  2.5 17.5 25  0 16.25 26.25  0 17.5 26.25  0 17.5 27.5  2.5 15 25  3.75 16.25 26.25  3.75 16.25 25  3.75 15 25  5 15 25  5 16.25 26.25  5 16.25 25  5 17.5 25  2.5 16.25 25  3.75 17.5 26.25  3.75 17.5 25  6.25 16.25 26.25  6.25 16.25 25  6.25 15 25  7.5 15 25  7.5 16.25 25  7.5 17.5 25  6.25 17.5 25  1.25 18.75 26.25  1.25 18.75 25  2.5 18.75 26.25  2.5 18.75 25  2.5 20 25  0 18.75 25  0 20 25  1.25 20 25  0 18.75 26.25  3.75 18.75 26.25  3.75 18.75 25  5 18.75 25  5 20 25  3.75 20 25  3.75 21.25 26.25  3.75 21.25 25  5 21.25 25  5 22.5 25  2.5 21.25 25  2.5 22.5 25  3.75 22.5 26.25  3.75 22.5 25  3.75 23.75 26.25  3.75 23.75 25  5 23.75 25  5 25 25  0 10 0  1.25 11.25 1.25  1.25 11.25 0  0 11.25 0  0 12.5 0  1.25 12.5 1.25  1.25 12.5 0  2.5 12.5 0  2.5 12.5 1.25  2.5 12.5 2.5  0 12.5 2.5  1.25 12.5 2.5  1.25 11.25 2.5  0 11.25 2.5  0 11.25 1.25  0 12.5 1.25  5 12.5 0  5 12.5 1.25  5 11.25 1.25  3.75 11.25 1.25  5 11.25 0  3.75 11.25 0  5 12.5 2.5  5 11.25 2.5  3.75 11.25 2.5  3.75 12.5 1.25  3.75 12.5 0  3.75 12.5 2.5  7.5 12.5 0  7.5 12.5 1.25  7.5 11.25 1.25  6.25 11.25 1.25  7.5 11.25 0  6.25 11.25 0  7.5 12.5 2.5  7.5 11.25 2.5  6.25 11.25 2.5  6.25 12.5 1.25  6.25 12.5 0  6.25 12.5 2.5  10 10 0  10 11.25 1.25  10 11.25 0  8.75 11.25 1.25  8.75 11.25 0  10 12.5 0  10 12.5 1.25  10 12.5 2.5  10 10 1.25  10 10 2.5  10 11.25 2.5  8.75 11.25 2.5  8.75 12.5 1.25  8.75 12.5 0  8.75 12.5 2.5  1.25 13.75 1.25  1.25 13.75 0  2.5 13.75 1.25  2.5 13.75 0  2.5 15 0  2.5 15 1.25  2.5 15 2.5  2.5 13.75 2.5  1.25 13.75 2.5  0 13.75 0  0 15 0  1.25 15 1.25  1.25 15 0  0 13.75 1.25  0 13.75 2.5  0 15 2.5  1.25 15 2.5  0 15 1.25  3.75 13.75 1.25  3.75 13.75 0  5 13.75 1.25  5 13.75 0  5 15 0  5 15 1.25  5 15 2.5  5 13.75 2.5  3.75 13.75 2.5  3.75 15 1.25  3.75 15 0  3.75 15 2.5  6.25 13.75 1.25  6.25 13.75 0  7.5 13.75 1.25  7.5 13.75 0  7.5 15 0  7.5 15 1.25  7.5 15 2.5  7.5 13.75 2.5  6.25 13.75 2.5  6.25 15 1.25  6.25 15 0  6.25 15 2.5  8.75 13.75 1.25  8.75 13.75 0  10 13.75 1.25  10 13.75 0  10 15 0  10 15 1.25  10 15 2.5  10 13.75 2.5  8.75 13.75 2.5  8.75 15 1.25  8.75 15 0  8.75 15 2.5  3.75 16.25 1.25  3.75 16.25 0  5 16.25 1.25  5 16.25 0  5 17.5 0  5 17.5 1.25  5 17.5 2.5  5 16.25 2.5  3.75 16.25 2.5  6.25 16.25 1.25  6.25 16.25 0  7.5 16.25 1.25  7.5 16.25 0  7.5 17.5 0  7.5 17.5 1.25  7.5 17.5 2.5  7.5 16.25 2.5  6.25 16.25 2.5  6.25 17.5 1.25  6.25 17.5 0  6.25 17.5 2.5  8.75 16.25 1.25  8.75 16.25 0  10 16.25 1.25  10 16.25 0  10 17.5 0  10 17.5 1.25  10 17.5 2.5  10 16.25 2.5  8.75 16.25 2.5  8.75 17.5 1.25  8.75 17.5 0  8.75 17.5 2.5  1.25 12.5 3.75  1.25 11.25 3.75  2.5 12.5 3.75  2.5 12.5 5  0 12.5 3.75  0 11.25 3.75  0 12.5 5  1.25 12.5 5  5 12.5 3.75  5 11.25 3.75  3.75 11.25 3.75  5 12.5 5  5 11.25 5  3.75 11.25 5  3.75 12.5 3.75  3.75 12.5 5  7.5 12.5 3.75  7.5 11.25 3.75  6.25 11.25 3.75  7.5 12.5 5  7.5 11.25 5  6.25 11.25 5  6.25 12.5 3.75  6.25 12.5 5  10 11.25 3.75  8.75 11.25 3.75  10 12.5 3.75  10 12.5 5  10 10 3.75  10 10 5  10 11.25 5  8.75 11.25 5  8.75 12.5 3.75  8.75 12.5 5  1.25 13.75 3.75  2.5 13.75 3.75  2.5 15 3.75  2.5 15 5  2.5 13.75 5  1.25 13.75 5  1.25 15 3.75  0 13.75 3.75  0 13.75 5  0 15 5  1.25 15 5  0 15 3.75  3.75 13.75 3.75  5 13.75 3.75  5 15 3.75  5 15 5  5 13.75 5  3.75 13.75 5  3.75 15 3.75  3.75 15 5  6.25 13.75 3.75  7.5 13.75 3.75  7.5 15 3.75  7.5 15 5  7.5 13.75 5  6.25 13.75 5  6.25 15 3.75  6.25 15 5  8.75 13.75 3.75  10 13.75 3.75  10 15 3.75  10 15 5  10 13.75 5  8.75 13.75 5  8.75 15 3.75  8.75 15 5  1.25 16.25 3.75  2.5 16.25 3.75  2.5 16.25 5  2.5 17.5 5  1.25 16.25 5  0 16.25 3.75  0 16.25 5  0 17.5 5  1.25 17.5 5  3.75 16.25 3.75  5 16.25 3.75  5 17.5 3.75  5 17.5 5  5 16.25 5  3.75 16.25 5  3.75 17.5 5  6.25 16.25 3.75  7.5 16.25 3.75  7.5 17.5 3.75  7.5 17.5 5  7.5 16.25 5  6.25 16.25 5  6.25 17.5 3.75  6.25 17.5 5  8.75 16.25 3.75  10 16.25 3.75  10 17.5 3.75  10 17.5 5  10 16.25 5  8.75 16.25 5  8.75 17.5 3.75  8.75 17.5 5  2.5 12.5 6.25  2.5 11.25 6.25  1.25 11.25 6.25  2.5 12.5 7.5  1.25 12.5 6.25  0 12.5 6.25  0 12.5 7.5  1.25 12.5 7.5  5 12.5 6.25  5 11.25 6.25  3.75 11.25 6.25  5 12.5 7.5  5 11.25 7.5  3.75 11.25 7.5  3.75 12.5 6.25  3.75 12.5 7.5  7.5 12.5 6.25  7.5 11.25 6.25  6.25 11.25 6.25  7.5 12.5 7.5  7.5 11.25 7.5  6.25 11.25 7.5  6.25 12.5 6.25  6.25 12.5 7.5  10 11.25 6.25  8.75 11.25 6.25  10 12.5 6.25  10 12.5 7.5  10 10 6.25  10 10 7.5  10 11.25 7.5  8.75 11.25 7.5  8.75 12.5 6.25  8.75 12.5 7.5  1.25 13.75 6.25  2.5 13.75 6.25  2.5 15 6.25  2.5 15 7.5  2.5 13.75 7.5  1.25 13.75 7.5  1.25 15 6.25  0 13.75 6.25  0 13.75 7.5  0 15 7.5  1.25 15 7.5  0 15 6.25  3.75 13.75 6.25  5 13.75 6.25  5 15 6.25  5 15 7.5  5 13.75 7.5  3.75 13.75 7.5  3.75 15 6.25  3.75 15 7.5  6.25 13.75 6.25  7.5 13.75 6.25  7.5 15 6.25  7.5 15 7.5  7.5 13.75 7.5  6.25 13.75 7.5  6.25 15 6.25  6.25 15 7.5  8.75 13.75 6.25  10 13.75 6.25  10 15 6.25  10 15 7.5  10 13.75 7.5  8.75 13.75 7.5  8.75 15 6.25  8.75 15 7.5  1.25 16.25 6.25  2.5 16.25 6.25  2.5 17.5 6.25  2.5 17.5 7.5  2.5 16.25 7.5  1.25 16.25 7.5  1.25 17.5 6.25  0 16.25 6.25  0 16.25 7.5  0 17.5 7.5  1.25 17.5 7.5  0 17.5 6.25  3.75 16.25 6.25  5 16.25 6.25  5 17.5 6.25  5 17.5 7.5  5 16.25 7.5  3.75 16.25 7.5  3.75 17.5 6.25  3.75 17.5 7.5  6.25 16.25 6.25  7.5 16.25 6.25  7.5 17.5 6.25  7.5 17.5 7.5  7.5 16.25 7.5  6.25 16.25 7.5  6.25 17.5 6.25  6.25 17.5 7.5  8.75 16.25 6.25  10 16.25 6.25  10 17.5 6.25  10 17.5 7.5  10 16.25 7.5  8.75 16.25 7.5  8.75 17.5 6.25  8.75 17.5 7.5  1.25 18.75 6.25  2.5 18.75 6.25  2.5 18.75 7.5  2.5 20 7.5  1.25 18.75 7.5  0 18.75 6.25  0 18.75 7.5  0 20 7.5  1.25 20 7.5  3.75 18.75 6.25  5 18.75 6.25  5 18.75 7.5  5 20 7.5  3.75 18.75 7.5  3.75 20 7.5  6.25 18.75 6.25  7.5 18.75 6.25  7.5 18.75 7.5  7.5 20 7.5  6.25 18.75 7.5  6.25 20 7.5  8.75 18.75 6.25  10 18.75 6.25  10 18.75 7.5  10 20 7.5  8.75 18.75 7.5  8.75 20 7.5  11.25 18.75 6.25  11.25 18.75 7.5  11.25 20 7.5  12.5 20 7.5  5 12.5 8.75  5 11.25 8.75  3.75 11.25 8.75  5 12.5 10  3.75 12.5 8.75  2.5 12.5 8.75  2.5 12.5 10  3.75 12.5 10  7.5 12.5 8.75  7.5 11.25 8.75  6.25 11.25 8.75  7.5 12.5 10  6.25 12.5 8.75  6.25 12.5 10  10 11.25 8.75  8.75 11.25 8.75  10 12.5 8.75  10 12.5 10  10 11.25 10  8.75 11.25 10  8.75 12.5 8.75  8.75 12.5 10  1.25 13.75 8.75  2.5 13.75 8.75  2.5 15 8.75  2.5 15 10  1.25 12.5 8.75  2.5 13.75 10  0 12.5 8.75  0 12.5 10  1.25 13.75 10  1.25 12.5 10  1.25 15 8.75  0 13.75 8.75  0 13.75 10  0 15 10  1.25 15 10  0 15 8.75  3.75 13.75 8.75  5 13.75 8.75  5 15 8.75  5 15 10  5 13.75 10  3.75 13.75 10  3.75 15 8.75  3.75 15 10  6.25 13.75 8.75  7.5 13.75 8.75  7.5 15 8.75  7.5 15 10  7.5 13.75 10  6.25 13.75 10  6.25 15 8.75  6.25 15 10  8.75 13.75 8.75  10 13.75 8.75  10 15 8.75  10 15 10  10 13.75 10  8.75 13.75 10  8.75 15 8.75  8.75 15 10  1.25 16.25 8.75  2.5 16.25 8.75  2.5 17.5 8.75  2.5 17.5 10  2.5 16.25 10  1.25 16.25 10  1.25 17.5 8.75  0 16.25 8.75  0 16.25 10  0 17.5 10  1.25 17.5 10  0 17.5 8.75  3.75 16.25 8.75  5 16.25 8.75  5 17.5 8.75  5 17.5 10  5 16.25 10  3.75 16.25 10  3.75 17.5 8.75  3.75 17.5 10  6.25 16.25 8.75  7.5 16.25 8.75  7.5 17.5 8.75  7.5 17.5 10  7.5 16.25 10  6.25 16.25 10  6.25 17.5 8.75  6.25 17.5 10  8.75 16.25 8.75  10 16.25 8.75  10 17.5 8.75  10 17.5 10  10 16.25 10  8.75 16.25 10  8.75 17.5 8.75  8.75 17.5 10  11.25 16.25 8.75  11.25 16.25 10  11.25 17.5 10  12.5 17.5 10  11.25 17.5 8.75  1.25 18.75 8.75  2.5 18.75 8.75  2.5 20 8.75  2.5 20 10  2.5 18.75 10  1.25 18.75 10  1.25 20 8.75  0 18.75 8.75  0 18.75 10  0 20 10  1.25 20 10  0 20 8.75  3.75 18.75 8.75  5 18.75 8.75  5 20 8.75  5 20 10  5 18.75 10  3.75 18.75 10  3.75 20 8.75  3.75 20 10  6.25 18.75 8.75  7.5 18.75 8.75  7.5 20 8.75  7.5 20 10  7.5 18.75 10  6.25 18.75 10  6.25 20 8.75  6.25 20 10  8.75 18.75 8.75  10 18.75 8.75  10 20 8.75  10 20 10  10 18.75 10  8.75 18.75 10  8.75 20 8.75  8.75 20 10  11.25 18.75 8.75  11.25 18.75 10  12.5 18.75 10  12.5 20 10  11.25 20 8.75  12.5 20 8.75  11.25 20 10  1.25 21.25 8.75  2.5 21.25 8.75  2.5 21.25 10  2.5 22.5 10  1.25 21.25 10  0 21.25 8.75  0 21.25 10  0 22.5 10  1.25 22.5 10  3.75 21.25 8.75  5 21.25 8.75  5 21.25 10  5 22.5 10  3.75 21.25 10  3.75 22.5 10  6.25 21.25 8.75  7.5 21.25 8.75  7.5 21.25 10  7.5 22.5 10  6.25 21.25 10  6.25 22.5 10  8.75 21.25 8.75  10 21.25 8.75  10 21.25 10  10 22.5 10  8.75 21.25 10  8.75 22.5 10  11.25 21.25 8.75  12.5 21.25 8.75  12.5 21.25 10  12.5 22.5 10  11.25 21.25 10  11.25 22.5 10  3.75 12.5 11.25  3.75 11.25 11.25  5 12.5 11.25  5 12.5 12.5  2.5 12.5 11.25  2.5 12.5 12.5  3.75 12.5 12.5  10 12.5 11.25  10 11.25 11.25  8.75 11.25 11.25  10 12.5 12.5  10 11.25 12.5  8.75 11.25 12.5  8.75 12.5 11.25  7.5 12.5 12.5  8.75 12.5 12.5  7.5 12.5 11.25  1.25 13.75 11.25  2.5 13.75 11.25  2.5 15 11.25  2.5 15 12.5  1.25 12.5 11.25  2.5 13.75 12.5  0 12.5 11.25  0 12.5 12.5  1.25 13.75 12.5  1.25 12.5 12.5  1.25 15 11.25  0 13.75 11.25  0 13.75 12.5  0 15 12.5  1.25 15 12.5  0 15 11.25  3.75 13.75 11.25  5 13.75 11.25  5 15 11.25  5 15 12.5  5 13.75 12.5  3.75 13.75 12.5  3.75 15 11.25  3.75 15 12.5  6.25 13.75 11.25  7.5 13.75 11.25  7.5 15 11.25  7.5 15 12.5  6.25 12.5 11.25  7.5 13.75 12.5  6.25 13.75 12.5  6.25 12.5 12.5  6.25 15 11.25  6.25 15 12.5  8.75 13.75 11.25  10 13.75 11.25  10 15 11.25  10 15 12.5  10 13.75 12.5  8.75 13.75 12.5  8.75 15 11.25  8.75 15 12.5  1.25 16.25 11.25  2.5 16.25 11.25  2.5 17.5 11.25  2.5 17.5 12.5  2.5 16.25 12.5  1.25 16.25 12.5  1.25 17.5 11.25  0 16.25 11.25  0 16.25 12.5  0 17.5 12.5  1.25 17.5 12.5  0 17.5 11.25  3.75 16.25 11.25  5 16.25 11.25  5 17.5 11.25  5 17.5 12.5  5 16.25 12.5  3.75 16.25 12.5  3.75 17.5 11.25  3.75 17.5 12.5  6.25 16.25 11.25  7
[...]
<PointData  Vectors="u"> 
<DataArray  type="Float64"  Name="u"  NumberOfComponents="3" format="ascii">2.0000000000060163e+02 1.4133374103816759e-10 -4.0189915473782735e-11  1.9999999999900047e+02 -1.0656800399206050e-10 -6.7385039733070164e-12  1.9999999999910330e+02 -2.6072431073718654e-10 -1.0567738488574601e-10  2.0000000000006605e+02 -1.2743910790165888e-10 1.4482083006555722e-10  2.0000000000063309e+02 1.3483242788848904e-10 -6.4491823733411018e-11  1.9999999999905819e+02 -1.9436946922519144e-10 -1.0721638683473992e-10  1.9999999999900700e+02 -4.1130530443953121e-11 6.1495944345459115e-11  1.9999999999822873e+02 1.7690834237786329e-10 -1.9297482536269569e-12  1.9999999999974116e+02 -7.5494641482035185e-11 3.5353895654604214e-11  2.0000000000002899e+02 -1.4669498930919354e-10 2.4825152228740932e-12  2.0000000000061800e+02 1.1675833292547936e-10 1.1502541179454640e-10  1.9999999999819565e+02 1.3943440138307575e-10 2.0824387586339149e-11  1.9999999999718418e+02 -1.1281995795495670e-10 -9.7850019798299558e-11  1.9999999999708231e+02 -2.4585807255587524e-10 -8.2626841473856471e-11  1.9999999999720330e+02 -6.6793497178119430e-11 7.7283307704710028e-11  1.9999999999648460e+02 1.6054767772371921e-10 -3.5406557215716781e-11  1.9999999999614690e+02 -1.1629085797698145e-10 -1.2008659857764836e-10  1.9999999999626971e+02 -3.4875129421686736e-11 6.6085192710140635e-11  1.9999999999646079e+02 1.2097613838443621e-10 1.8882821575479562e-12  1.9999999999818874e+02 -6.9669599548886098e-11 5.7884895708572233e-12  1.9999999999720933e+02 -1.4566582197216114e-10 -1.2585080812095220e-10  1.9999999999717716e+02 -6.5168705479574816e-11 6.0580739931744132e-11  1.9999999999534808e+02 -1.3295041900227615e-10 -1.2436978849435688e-10  1.9999999999520773e+02 -2.3486014038530425e-10 -6.0067416913843434e-11  1.9999999999539730e+02 -5.2704362938339929e-11 8.4846482323451228e-11  1.9999999999467303e+02 1.4236437239063065e-10 -3.9136853219367910e-11  1.9999999999447738e+02 -6.7640637373560346e-11 7.6371118596069415e-11  1.9999999999465524e+02 1.5124880182107410e-10 -1.7846416490479365e-11  1.9999999999546563e+02 -7.5740234023464213e-11 9.0528952363552534e-11  1.9999999999903545e+02 -9.5053471004785335e-11 -1.1146058386606478e-11  1.9999999999908070e+02 -2.3434558323082306e-10 -6.4044498089255817e-11  1.9999999999809299e+02 -2.4329426692903287e-10 -1.7841162267725912e-10  1.9999999999822950e+02 -4.6578163138262614e-11 -3.6731603069890648e-11  1.9999999999821108e+02 1.8560548837136896e-10 -3.0519619205701208e-11  2.0000000000008995e+02 2.5439446670799741e-11 7.0349110776842922e-11  2.0000000000052768e+02 1.4922280139169510e-10 -6.9880583361146437e-11  1.9999999999904102e+02 -4.9620112710652590e-11 4.9815878955909213e-11  1.9999999999968728e+02 -3.2918771998162958e-11 2.7502550954892702e-11  1.9999999999718526e+02 -1.0231689746288815e-10 -7.0603202785037331e-11  1.9999999999702041e+02 -2.4337419053542197e-10 -3.4910896292635555e-11  1.9999999999629040e+02 -2.9420051699761379e-11 7.7491669014179785e-11  1.9999999999645215e+02 1.8120048940358555e-10 -3.5671915391695874e-11  1.9999999999720237e+02 -5.3608564952901669e-11 4.9075526209609702e-11  1.9999999999716999e+02 -7.1175384719050714e-11 -9.6550203509323989e-11  1.9999999999709834e+02 -2.2716351278471808e-10 -6.6761317454922378e-11  1.9999999999626363e+02 -4.5704594145878210e-11 3.4815476540816961e-11  1.9999999999646499e+02 1.1171206182987129e-10 -2.0738359540343283e-11  1.9999999999816325e+02 -4.7369036206521944e-11 -4.0546443981264843e-12  1.9999999999820110e+02 1.4936393960365185e-10 -3.4552607522229712e-11  1.9999999999717693e+02 -2.2997043996899645e-10 -1.3112456958977686e-10  1.9999999999724105e+02 -1.2359541822760849e-10 6.9678169922254485e-11  1.9999999999719586e+02 -4.8098865095248844e-11 -7.0721569409202730e-11  1.9999999999706083e+02 -2.3282125039105066e-10 -6.5803171493165970e-11  1.9999999999627872e+02 -1.4296453350404951e-11 8.6984652217688440e-11  1.9999999999644916e+02 1.3898384265415963e-10 7.3737868736384725e-12  2.0000000000055206e+02 1.0156161813876004e-10 8.0208583723626037e-10  1.9999999999901652e+02 -9.0443748631928279e-11 -1.0062082533179808e-10  1.9999999999910762e+02 -2.2033743929322959e-10 -5.8413859188141552e-10  2.0000000000003479e+02 -8.1013568270298666e-11 4.0620158774645155e-11  2.0000000000062823e+02 1.3926223377621704e-10 7.9086243332217103e-10  1.9999999999907686e+02 -2.2529990226003117e-10 -2.2149732745125647e-10  1.9999999999902883e+02 -1.0129779847879402e-10 -2.2616472865836899e-11  1.9999999999818596e+02 1.6371486464454204e-10 7.4097323577223061e-10  1.9999999999814619e+02 -8.6039231030574957e-11 -7.6368848338722859e-11  1.9999999999815273e+02 1.2937933969075122e-10 2.1757299345548868e-10  2.0000000000055391e+02 1.6982378788731639e-10 1.7513530293187711e-10  1.9999999999903156e+02 -7.8117734925448449e-11 6.0613947175740630e-11  1.9999999999907209e+02 -1.4620321662265162e-10 -5.6909858371315240e-11  2.0000000000000921e+02 -1.2231981402713629e-10 -1.0535948145398544e-10  1.9999999999971931e+02 -8.5717375772822031e-11 -1.1212927569818664e-10  1.9999999999996166e+02 -5.4679236126375973e-11 -7.0796794768217086e-11  1.9999999999648779e+02 1.5786416812381864e-10 7.2369005323591642e-10  1.9999999999636785e+02 -2.8407286312899425e-11 -8.1348728386805847e-11  1.9999999999614616e+02 -1.2415083356436831e-10 -2.1095482157875505e-10  1.9999999999717406e+02 -9.2512357866766009e-11 -1.4714132754903580e-10  1.9999999999631694e+02 -5.0718903804535988e-11 -7.4279916021695271e-11  1.9999999999704923e+02 -2.4653545444448192e-10 -5.4307040492204475e-10  1.9999999999644402e+02 1.0996544315269667e-10 1.7886093241186712e-10  1.9999999999633053e+02 -6.2430014251935685e-11 2.7911632719158911e-11  1.9999999999716073e+02 -1.4990659674074911e-10 -1.6043153444330450e-10  1.9999999999715848e+02 -1.8286405874552582e-10 -2.1135206077819120e-10  1.9999999999724128e+02 -4.7592945979786609e-11 -1.3274409683134126e-11  1.9999999999719330e+02 -2.3774474802112833e-11 3.3923989542803369e-11  1.9999999999464691e+02 1.5141167173933815e-10 7.4609373901014839e-10  1.9999999999452393e+02 1.1478738689034843e-11 -1.1521533669026157e-10  1.9999999999433743e+02 -1.5208350666821545e-10 -2.0100612742832974e-10  1.9999999999535152e+02 -8.0415029191009586e-11 -1.9176302421373831e-10  1.9999999999443477e+02 -3.1932063467490088e-11 -1.0319722010642369e-11  1.9999999999520438e+02 -1.8401038996276968e-10 -5.7028954783750055e-10  1.9999999999467633e+02 1.2470665988987156e-10 1.7245606645446030e-10  1.9999999999454710e+02 -5.6878720473404188e-11 3.3985232888674114e-12  1.9999999999533418e+02 -1.2302911524600739e-10 -2.1384432053472532e-10  1.9999999999530735e+02 -1.9405216750799564e-10 -2.5884788389038475e-10  1.9999999999543752e+02 -6.7942970179106997e-11 2.3489995119146945e-11  1.9999999999538713e+02 -4.4968426679285201e-11 5.2676821287471044e-12  1.9999999999291686e+02 9.0224801368708480e-11 7.3720215703254539e-10  1.9999999999263414e+02 -1.6625084571722909e-10 -2.4018189526896859e-10  1.9999999999265120e+02 -1.2849585031188288e-11 -4.8546491427669670e-11  1.9999999999355830e+02 -1.0605040955407428e-10 -1.7950567893574978e-10  1.9999999999343984e+02 -1.9748322311053711e-10 -5.0463041137325931e-10  1.9999999999288906e+02 1.2445607989894158e-10 6.8707896482511542e-10  1.9999999999270494e+02 1.8756817681644562e-11 -7.9566667126082693e-11  1.9999999999288221e+02 1.1836386157561236e-10 1.7803538878800820e-10  1.9999999999267141e+02 -5.7522920620731642e-12 -7.5035756849807440e-11  1.9999999999287445e+02 9.9350509689667860e-11 1.5055551001936554e-10  1.9999999999267249e+02 -5.8558309345462408e-11 4.2652884375857351e-11  1.9999999999349842e+02 -1.4886243832620518e-10 -1.4416864042557090e-10  1.9999999999348211e+02 -1.5849869471432596e-10 -2.0676952131777263e-10  1.9999999999359247e+02 -7.2212763614087281e-11 -1.7953565173347475e-11  1.9999999999359264e+02 2.7782922724380047e-11 3.7550874574131900e-11  1.9999999999895419e+02 -8.0024733109513760e-11 -8.6636608234595845e-11  1.9999999999907550e+02 -2.1883056685502544e-10 -6.2550702912652090e-10  1.9999999999817615e+02 -2.4023353638028045e-10 -3.4320360288069487e-10  1.9999999999824630e+02 -5.7783834421538365e-11 5.6351285433035154e-11  1.9999999999823240e+02 1.7090559851880637e-10 7.6085191671403462e-10  1.9999999999817680e+02 -4.4182599575188030e-11 -8.9458584183606842e-11  1.9999999999817365e+02 1.3732784550736324e-10 1.8275414525121051e-10  1.9999999999823152e+02 -5.1262884759690303e-11 2.4680044906595853e-11  1.9999999999904770e+02 -1.6823257638422427e-10 -5.6792001830570415e-11  2.0000000000002788e+02 -1.9746327927019412e-11 1.0606916002313175e-10  2.0000000000061880e+02 1.8264264006501301e-10 7.6900692654321283e-10  1.9999999999902522e+02 -1.0927157470890801e-10 -1.9803453515879870e-10  1.9999999999896647e+02 -6.9855615672087053e-11 2.0047630781636303e-11  1.9999999999966340e+02 -7.5463804899077551e-11 -1.1231828572320473e-10  1.9999999999994918e+02 -1.3195733231981079e-10 -8.2804844900738274e-11  2.0000000000059015e+02 1.2744634356843774e-10 1.0226057377567305e-10  1.9999999999901991e+02 -6.5278228968138410e-11 1.0324506594688551e-12  1.9999999999997286e+02 -4.3314281069265406e-12 -8.9878244436375706e-11  1.9999999999715786e+02 -6.8086482164258998e-11 -2.2028544613844945e-10  1.9999999999705437e+02 -2.1705169495919618e-10 -4.8475386023039352e-10  1.9999999999614110e+02 -1.4832964501492398e-10 -2.3199419599136510e-10  1.9999999999627033e+02 -6.0677169907647687e-11 -9.7971272752060935e-12  1.9999999999648304e+02 1.3548945965429104e-10 7.4163267241611511e-10  1.9999999999636498e+02 -7.0787636628881679e-12 -1.2315590332720774e-10  1.9999999999645374e+02 1.0643649325627377e-10 2.0500213393975147e-10  1.9999999999632971e+02 -4.0171833417700884e-11 5.0992779826420826e-11  1.9999999999716098e+02 -1.2667504838271228e-10 -1.4336857620194844e-10  1.9999999999708621e+02 -2.1518286927743200e-10 -2.7406264603042088e-10  1.9999999999718241e+02 -1.7890991367823431e-10 6.0718726995133651e-11  1.9999999999719552e+02 -3.5752275959188332e-11 6.9957829495059794e-11  1.9999999999536166e+02 -1.0810043075378896e-10 -2.3403436900417871e-10  1.9999999999523951e+02 -2.2853227575832278e-10 -5.4282775840035028e-10  1.9999999999437969e+02 -1.4377367127551077e-10 -2.3417867454360026e-10  1.9999999999443841e+02 -5.1576527722860500e-11 5.7511121317804489e-11  1.9999999999465689e+02 9.9946918407303403e-11 7.5033310069592885e-10  1.9999999999455537e+02 -4.2859203016197864e-11 -9.5351117671748959e-11  1.9999999999466246e+02 1.0072323187182616e-10 2.0064271125211370e-10  1.9999999999457967e+02 -2.8687306383593560e-11 5.5011535307201884e-11  1.9999999999530883e+02 -8.0185257165163623e-11 -2.0058712810787676e-10  1.9999999999527134e+02 -1.8667059099568082e-10 -2.4639051106076774e-10  1.9999999999533995e+02 -9.7586387108375353e-11 2.9656955142590225e-11  1.9999999999541495e+02 -7.2162079865426815e-12 7.0268142574408907e-11  1.9999999999353250e+02 -1.0408287951971279e-10 -1.9483262823916038e-10  1.9999999999341730e+02 -2.3669733383329616e-10 -4.7883830816921582e-10  1.9999999999260859e+02 -1.6275652542382405e-10 -2.4280848170690835e-10  1.9999999999266777e+02 -5.0966646625938448e-11 -6.6162997472718245e-12  1.9999999999290316e+02 1.2207824999219076e-10 7.0975940815690107e-10  1.9999999999268343e+02 1.7887327571009127e-11 -8.2924238039585556e-11  1.9999999999284040e+02 9.2994941359963951e-11 1.8855062691660002e-10  1.9999999999266666e+02 -3.8773347553166888e-11 5.6088638680796960e-11  1.9999999999351294e+02 -1.3420871395481344e-10 -1.3598182741415579e-10  1.9999999999348577e+02 -2.1084932972842388e-10 -2.0396158917399100e-10  1.9999999999356857e+02 -1.1806380228476785e-10 1.8694247872986739e-11  1.9999999999354665e+02 -2.0247510413711283e-11 4.2374792851637828e-11  1.9999999999716576e+02 -6.9372218588293064e-11 -1.8550220244545798e-10  1.9999999999724020e+02 -2.1671764839407111e-10 -5.5322520565923917e-10  1.9999999999617390e+02 -1.4269636392957263e-10 -2.6351445103266978e-10  1.9999999999628832e+02 -7.6008458535504469e-11 4.4066781349236274e-11  1.9999999999644049e+02 1.7100279969590790e-10 7.4790608641743456e-10  1.9999999999642503e+02 -5.3188006062446629e-11 -1.0326330815185931e-10  1.9999999999640116e+02 1.6050515907020587e-10 2.1573388472894385e-10  1.9999999999633565e+02 -2.7967487041765902e-11 8.0185400552076074e-11  1.9999999999721334e+02 -9.9425958813479909e-11 -2.1934830158277231e-10  1.9999999999535854e+02 -7.9123727591818305e-11 -2.2167500413021174e-10  1.9999999999521810e+02 -2.0181799188600560e-10 -5.7123656892824401e-10  1.9999999999432441e+02 -9.1473720481254453e-11 -2.1715587144648612e-10  1.9999999999438938e+02 -2.5151629927913752e-11 3.4180950672030711e-11  1.9999999999462000e+02 1.4313522069994332e-10 7.2598005871124947e-10  1.9999999999453129e+02 -5.8300920909306641e-11 -3.4224279316049550e-11  1.9999999999463745e+02 1.4736026024148529e-10 1.5957546513447904e-10  1.9999999999451890e+02 -3.1206906127096752e-11 5.1131436571910657e-11  1.9999999999534018e+02 -1.1726381556714799e-10 -1.2429752169610129e-10  1.9999999999533901e+02 -1.0680124756190116e-10 -2.2500980837702530e-10  1.9999999999541546e+02 -1.1528508577594481e-10 1.0842440861277079e-11  1.9999999999548038e+02 -3.3589739941979932e-11 3.1839453965204665e-11  1.9999999999356126e+02 -6.9177493662735434e-11 -1.5590161107865033e-10  1.9999999999343683e+02 -2.4646436530015851e-10 -5.1716231466566598e-10  1.9999999999261527e+02 -1.4956548689688306e-10 -2.4562752323341140e-10  1.9999999999268678e+02 -7.5477783682569163e-11 -1.1269526363589514e-11  1.9999999999290023e+02 1.5823527898554490e-10 7.1768667987536355e-10  1.9999999999267646e+02 -4.2478790893746083e-11 -8.2894401876554867e-11  1.9999999999282605e+02 1.6632577385286283e-10 1.4681802638389380e-10  1.9999999999265435e+02 -6.0522808712808657e-11 4.8009700297316428e-11  1.9999999999352752e+02 -1.0704220448187049e-10 -1.5932379332171712e-10  1.9999999999351240e+02 -1.2700606141634500e-10 -1.7294563083523596e-10  1.9999999999360622e+02 -2.5799141170169647e-11 3.9210898246733316e-12  1.9999999999354250e+02 -4.2081907652329366e-11 5.0451299706058175e-11  1.9999999999904830e+02 -1.7957207164807899e-10 -1.2773517945045951e-10  1.9999999999898384e+02 -9.3657783230851746e-11 -7.9811989822150461e-11  1.9999999999820565e+02 -8.7715582776069463e-11 -1.7980974445036478e-11  1.9999999999819707e+02 1.1752762328441748e-10 1.2827128480873046e-10  2.0000000000005309e+02 -9.1998032075193607e-11 -8.5050547947838688e-11  1.9999999999966724e+02 -6.1014039251980285e-11 -6.3112569638799337e-12  2.0000000000057722e+02 1.2289104194066842e-10 1.4017605060512869e-10  1.9999999999901462e+02 -2.5007962284713401e-11 2.2724876604820522e-11  1.9999999999632533e+02 -9.7669017752164512e-12 -2.0780218770338352e-11  1.9999999999613468e+02 -1.2066474844827244e-10 -1.0831584409674472e-10  1.9999999999715212e+02 -7.3815572988480987e-11 -7.7590558141812942e-11  1.9999999999648514e+02 1.5585444299168828e-10 1.3133150202869229e-10  1.9999999999630523e+02 -3.0335284231667001e-11 4.8580785224410002e-12  1.9999999999714254e+02 -1.3979380089566521e-10 -1.6486921393264074e-10  1.9999999999711645e+02 -1.8490685261593055e-10 -1.0669284364435993e-10  1.9999999999715095e+02 -1.9312965616078042e-12 1.7333053923140541e-11  1.9999999999457279e+02 5.1039793561874040e-11 -1.3410111539634537e-11  1.9999999999437995e+02 -1.0088364487437911e-10 -1.4789958348126193e-10  1.9999999999531212e+02 -9.3550576961356635e-11 -8.8911394747273592e-11  1.9999999999463691e+02 1.5288089680374081e-10 1.6579995688591794e-10  1.9999999999455451e+02 1.2576031100001992e-11 8.6277623890223811e-11  1.9999999999531528e+02 -7.2313332208686609e-11 -1.5218034789461058e-10  1.9999999999532076e+02 -1.6709238483353560e-10 -4.7108534294086870e-11  1.9999999999543678e+02 3.5149163998211789e-11 3.2933834302135680e-11  1.9999999999263554e+02 -9.6331708195853669e-11 -4.5930563844146357e-11  1.9999999999358758e+02 -8.7741984231683861e-11 -7.1983962065098280e-11  1.9999999999268366e+02 -3.1759496027910084e-11 4.2511413207769325e-11  1.9999999999289304e+02 7.9730656255819275e-11 1.5365038079192808e-10  1.9999999999273942e+02 3.3718418076842764e-11 9.7212221406648121e-12  1.9999999999290750e+02 1.1994189120593110e-10 1.6283627998878090e-10  1.9999999999270884e+02 -7.1312949333935398e-12 3.3248664782146211e-11  1.9999999999359972e+02 -9.5603229700153479e-11 -1.7604551399053156e-10  1.9999999999353389e+02 -1.5182762201476842e-10 -7.5041200884960524e-11  1.9999999999366310e+02 3.2819232989740536e-11 4.1777010218437574e-11  1.9999999999897230e+02 -9.2816174965598984e-11 -1.1064096665312450e-10  1.9999999999816748e+02 -2.4362189509292562e-10 -2.1156935830128539e-10  1.9999999999820071e+02 -1.5474597801902808e-10 -3.2687200530662650e-11  1.9999999999821108e+02 1.5325256772595359e-10 1.3610766990316413e-10  1.9999999999817103e+02 -9.6472191514124399e-11 -8.6045867368416424e-11  1.9999999999902974e+02 -1.4664708378448032e-10 -1.7900669428755975e-10  1.9999999999902306e+02 -2.3333364102988039e-10 -1.3496220764035373e-10  1.9999999999961165e+02 -9.6269856560547668e-11 -8.2769287053543980e-11  2.0000000000003459e+02 -9.1560633341069070e-11 -4.4072003623408929e-11  2.0000000000055013e+02 1.3042783966502874e-10 1.4352301972783519e-10  1.9999999999897281e+02 -4.9846963125939600e-12 2.3322861090457687e-11  2.0000000000002200e+02 -1.2610153712530149e-10 -8.9307458950494381e-12  1.9999999999712423e+02 -8.8671894309092189e-11 -6.2646462575452994e-11  1.9999999999614602e+02 -1.2779183290468726e-10 -1.0765792001943369e-10  1.9999999999636242e+02 3.0788989260974105e-12 -1.8179430393169223e-11  1.9999999999644982e+02 1.0809356378234200e-10 1.1690447899770655e-10  1.9999999999636751e+02 -8.5564787782672186e-11 4.3234736286376380e-11  1.9999999999717582e+02 -1.3742568744757800e-10 -1.7969854356672458e-10  1.9999999999712639e+02 -2.0368544490334265e-10 -9.6183259969962376e-11  1.9999999999723187e+02 2.3618454327328882e-11 9.2859495889269538e-12  1.9999999999533912e+02 -7.6841771567752834e-11 -3.0835016585375931e-11  1.9999999999438862e+02 -1.2245368543341411e-10 -9.7982141556442197e-11  1.9999999999453414e+02 -5.6707374635985826e-12 8.9150703950834753e-12  1.9999999999462074e+02 1.0397028189571866e-10 1.3886052593435705e-10  1.9999999999455480e+02 -2.8926335272404255e-11 4.0232783090771851e-11  1.9999999999530357e+02 -1.4828219356514194e-10 -2.1829512223636932e-10  1.9999999999532031e+02 -1.8769817870550858e-10 -5.3721206654066711e-11  1.9999999999545665e+02 2.5847592249070315e-11 -2.9982530452409339e-11  1.9999999999353105e+02 -1.1322069167361562e-10 -7.5724542282757200e-11  1.9999999999262644e+02 -1.1675528074111824e-10 -8.3362807188599256e-11  1.9999999999266097e+02 -2.1137136303000774e-11 1.5266939627879137e-11  1.9999999999285959e+02 8.8327560228064080e-11 1.2282447916800941e-10  1.9999999999266390e+02 -5.7602491036478752e-11 4.6277656616028549e-11  1.9999999999352258e+02 -1.5038939195839692e-10 -1.7122928922091813e-10  1.9999999999351914e+02 -1.7852745076814240e-10 -8.3757703069560942e-11  1.9999999999363177e+02 -4.4197078305184829e-11 5.2155786561709598e-11  1.9999999999898631e+02 -5.3968909157950247e-11 -5.2872822922351433e-11  1.9999999999819303e+02 -2.0306054418072232e-10 -2.4741416323501801e-11  1.9999999999817322e+02 -7.0322260583379514e-11 -5.7096039577302516e-11  1.9999999999815660e+02 1.4770504037540582e-10 8.4664890179578960e-11  1.9999999999902667e+02 -1.0155509343384057e-10 -1.5849039893319492e-10  1.9999999999971033e+02 -3.5673500157694813e-11 5.7267647204033436e-12  1.9999999999999116e+02 -6.4489603014139811e-11 -1.7104614243120630e-11  2.0000000000062224e+02 1.3670456359084481e-10 6.8130281509896104e-11  1.9999999999896684e+02 -8.0367418143486211e-11 6.1402804944111723e-11  1.9999999999716454e+02 -5.0383391068799814e-11 -7.2504562670147487e-11  1.9999999999615949e+02 -9.9083912125848129e-11 -9.8208587922921529e-11  1.9999999999635639e+02 -3.4433416905916282e-11 2.5809175222699766e-11