<?xml version="1.0"?>
<VTKFile type="UnstructuredGrid"  version="0.1"  >
<UnstructuredGrid>
<Piece  NumberOfPoints="3917" NumberOfCells="19156">
<Points>
<DataArray  type="Float64"  NumberOfComponents="3"  format="ascii">25 27.5 35  26.25 28.75 35  25 28.75 35  26.25 28.75 33.75  25 30 35  26.25 30 35  27.5 30 35  25 28.75 36.25  23.75 28.75 36.25  25 30 36.25  25 30 37.5  25 27.5 36.25  25 27.5 37.5  25 28.75 37.5  26.25 28.75 36.25  26.25 30 36.25  27.5 30 36.25  27.5 30 37.5  26.25 28.75 37.5  26.25 30 37.5  26.25 31.25 36.25  27.5 31.25 36.25  27.5 31.25 37.5  27.5 32.5 37.5  26.25 31.25 37.5  25 32.5 37.5  26.25 32.5 37.5  25 32.5 35  26.25 32.5 36.25  25 32.5 36.25  26.25 33.75 36.25  26.25 33.75 37.5  26.25 28.75 38.75  26.25 30 38.75  27.5 30 38.75  27.5 30 40  25 27.5 40  26.25 28.75 40  25 28.75 40  25 30 40  26.25 30 40  25 30 38.75  26.25 31.25 38.75  27.5 31.25 38.75  27.5 32.5 38.75  27.5 32.5 40  27.5 31.25 40  26.25 31.25 40  26.25 32.5 38.75  26.25 33.75 38.75  27.5 33.75 38.75  27.5 33.75 40  27.5 35 40  26.25 33.75 40  26.25 28.75 41.25  26.25 30 41.25  27.5 30 41.25  27.5 30 42.5  25 27.5 42.5  26.25 28.75 42.5  25 28.75 42.5  25 30 42.5  26.25 30 42.5  25 30 41.25  26.25 31.25 41.25  27.5 31.25 41.25  27.5 32.5 41.25  27.5 32.5 42.5  27.5 31.25 42.5  26.25 31.25 42.5  26.25 32.5 41.25  27.5 33.75 41.25  26.25 33.75 41.25  27.5 35 41.25  27.5 35 42.5  27.5 33.75 42.5  26.25 33.75 42.5  26.25 35 41.25  27.5 36.25 41.25  27.5 36.25 40  26.25 36.25 41.25  27.5 37.5 40  27.5 37.5 41.25  27.5 37.5 42.5  27.5 36.25 42.5  26.25 36.25 42.5  26.25 37.5 41.25  26.25 38.75 41.25  27.5 38.75 41.25  25 28.75 43.75  23.75 28.75 43.75  25 30 43.75  25 30 45  25 27.5 43.75  25 27.5 45  25 28.75 45  26.25 28.75 43.75  26.25 30 43.75  27.5 30 43.75  27.5 30 45  26.25 28.75 45  26.25 30 45  26.25 31.25 43.75  27.5 31.25 43.75  27.5 32.5 43.75  27.5 32.5 45  27.5 31.25 45  26.25 31.25 45  26.25 32.5 43.75  25 31.25 45  25 32.5 45  26.25 32.5 45  27.5 33.75 43.75  26.25 33.75 43.75  27.5 35 43.75  27.5 35 45  27.5 33.75 45  26.25 33.75 45  26.25 35 43.75  26.25 35 45  27.5 36.25 43.75  26.25 36.25 43.75  27.5 37.5 43.75  27.5 37.5 45  27.5 36.25 45  26.25 36.25 45  26.25 28.75 46.25  26.25 30 46.25  27.5 30 46.25  27.5 30 47.5  25 28.75 46.25  25 27.5 46.25  25 27.5 47.5  26.25 28.75 47.5  25 28.75 47.5  25 30 47.5  26.25 30 47.5  25 30 46.25  26.25 31.25 46.25  27.5 31.25 46.25  27.5 32.5 46.25  27.5 32.5 47.5  27.5 31.25 47.5  26.25 31.25 47.5  26.25 32.5 46.25  26.25 33.75 46.25  27.5 33.75 46.25  27.5 35 46.25  27.5 35 47.5  27.5 33.75 47.5  26.25 33.75 47.5  26.25 35 46.25  25 35 47.5  26.25 35 47.5  27.5 36.25 46.25  26.25 36.25 46.25  27.5 37.5 46.25  27.5 37.5 47.5  27.5 36.25 47.5  26.25 36.25 47.5  26.25 37.5 46.25  27.5 38.75 46.25  27.5 38.75 45  26.25 38.75 46.25  27.5 40 45  27.5 40 46.25  27.5 40 47.5  27.5 38.75 47.5  26.25 38.75 47.5  25 28.75 48.75  23.75 28.75 48.75  25 30 48.75  25 30 50  26.25 28.75 48.75  26.25 30 48.75  27.5 30 48.75  27.5 30 50  26.25 30 50  26.25 31.25 48.75  27.5 31.25 48.75  27.5 32.5 48.75  27.5 32.5 50  27.5 31.25 50  26.25 31.25 50  26.25 32.5 48.75  26.25 32.5 50  27.5 33.75 48.75  26.25 33.75 48.75  27.5 35 48.75  27.5 35 50  27.5 33.75 50  26.25 33.75 50  26.25 35 48.75  26.25 35 50  26.25 36.25 48.75  27.5 36.25 48.75  27.5 37.5 48.75  27.5 37.5 50  27.5 36.25 50  26.25 36.25 50  26.25 37.5 48.75  27.5 38.75 48.75  26.25 38.75 48.75  27.5 40 48.75  27.5 40 50  27.5 38.75 50  25 22.5 37.5  26.25 22.5 38.75  26.25 22.5 37.5  26.25 21.25 38.75  27.5 22.5 37.5  27.5 22.5 38.75  27.5 22.5 40  25 22.5 38.75  25 22.5 40  26.25 22.5 40  25 23.75 38.75  25 23.75 37.5  23.75 23.75 38.75  23.75 23.75 37.5  25 25 37.5  25 25 38.75  25 25 40  25 23.75 40  26.25 23.75 38.75  26.25 23.75 37.5  27.5 23.75 38.75  27.5 23.75 37.5  27.5 25 37.5  27.5 25 38.75  27.5 25 40  27.5 23.75 40  26.25 23.75 40  26.25 25 38.75  26.25 25 37.5  26.25 25 40  26.25 26.25 38.75  26.25 26.25 37.5  27.5 26.25 38.75  27.5 26.25 37.5  27.5 27.5 37.5  27.5 27.5 38.75  27.5 27.5 40  27.5 26.25 40  26.25 26.25 40  25 26.25 37.5  26.25 27.5 38.75  26.25 27.5 37.5  25 26.25 38.75  25 26.25 40  26.25 27.5 40  25 27.5 38.75  27.5 28.75 38.75  27.5 28.75 40  27.5 22.5 41.25  27.5 21.25 41.25  26.25 21.25 41.25  27.5 22.5 42.5  27.5 20 42.5  27.5 21.25 42.5  25 20 42.5  26.25 21.25 42.5  26.25 20 42.5  26.25 22.5 41.25  25 22.5 42.5  26.25 22.5 42.5  25 22.5 41.25  26.25 23.75 41.25  27.5 23.75 41.25  27.5 25 41.25  27.5 25 42.5  27.5 23.75 42.5  26.25 23.75 42.5  26.25 25 41.25  25 23.75 41.25  25 23.75 42.5  25 25 42.5  26.25 25 42.5  25 25 41.25  26.25 26.25 41.25  27.5 26.25 41.25  27.5 27.5 41.25  27.5 27.5 42.5  27.5 26.25 42.5  26.25 26.25 42.5  26.25 27.5 41.25  25 26.25 42.5  26.25 27.5 42.5  25 27.5 41.25  27.5 28.75 41.25  27.5 28.75 42.5  26.25 21.25 43.75  27.5 21.25 43.75  27.5 22.5 43.75  27.5 22.5 45  26.25 20 43.75  27.5 20 43.75  27.5 20 45  27.5 21.25 45  25 20 45  26.25 21.25 45  26.25 20 45  26.25 22.5 43.75  25 22.5 45  26.25 22.5 45  26.25 23.75 43.75  27.5 23.75 43.75  27.5 25 43.75  27.5 25 45  27.5 23.75 45  26.25 23.75 45  26.25 25 43.75  25 25 45  26.25 25 45  25 25 43.75  25 26.25 43.75  23.75 26.25 43.75  25 26.25 45  26.25 26.25 43.75  27.5 26.25 43.75  27.5 27.5 43.75  27.5 27.5 45  27.5 26.25 45  26.25 26.25 45  26.25 27.5 43.75  26.25 27.5 45  27.5 28.75 43.75  27.5 28.75 45  27.5 20 46.25  27.5 18.75 46.25  26.25 18.75 46.25  27.5 20 47.5  27.5 17.5 47.5  27.5 18.75 47.5  26.25 18.75 47.5  26.25 20 46.25  25 20 47.5  26.25 20 47.5  26.25 21.25 46.25  27.5 21.25 46.25  27.5 22.5 46.25  27.5 22.5 47.5  27.5 21.25 47.5  26.25 21.25 47.5  26.25 22.5 46.25  25 21.25 47.5  25 22.5 47.5  26.25 22.5 47.5  25 22.5 46.25  26.25 23.75 46.25  27.5 23.75 46.25  27.5 25 46.25  27.5 25 47.5  27.5 23.75 47.5  26.25 23.75 47.5  26.25 25 46.25  25 23.75 47.5  25 25 47.5  26.25 25 47.5  25 25 46.25  26.25 26.25 46.25  27.5 26.25 46.25  27.5 27.5 46.25  27.5 27.5 47.5  27.5 26.25 47.5  26.25 26.25 47.5  26.25 27.5 46.25  25 26.25 46.25  25 26.25 47.5  26.25 27.5 47.5  27.5 28.75 46.25  27.5 28.75 47.5  27.5 18.75 48.75  26.25 18.75 48.75  27.5 20 48.75  27.5 20 50  27.5 17.5 50  27.5 18.75 50  26.25 18.75 50  26.25 20 48.75  25 20 50  26.25 20 50  26.25 21.25 48.75  27.5 21.25 48.75  27.5 22.5 48.75  27.5 22.5 50  27.5 21.25 50  26.25 21.25 50  26.25 22.5 48.75  25 22.5 50  26.25 22.5 50  25 22.5 48.75  26.25 23.75 48.75  27.5 23.75 48.75  27.5 25 48.75  27.5 25 50  27.5 23.75 50  26.25 23.75 50  26.25 25 48.75  25 25 50  26.25 25 50  25 25 48.75  25 26.25 48.75  23.75 26.25 48.75  25 27.5 48.75  25 27.5 50  25 26.25 50  26.25 26.25 48.75  27.5 26.25 48.75  27.5 27.5 48.75  27.5 27.5 50  27.5 26.25 50  26.25 26.25 50  26.25 27.5 48.75  26.25 27.5 50  25 28.75 50  27.5 28.75 48.75  27.5 28.75 50  26.25 28.75 50  25 22.5 35  25 23.75 35  25 23.75 33.75  23.75 23.75 33.75  25 25 35  23.75 23.75 35  27.5 22.5 35  27.5 23.75 35  26.25 23.75 35  26.25 23.75 33.75  27.5 25 35  26.25 25 35  25 25 32.5  26.25 25 33.75  25 25 33.75  25 26.25 33.75  25 26.25 32.5  23.75 26.25 33.75  25 27.5 32.5  25 27.5 33.75  25 26.25 35  26.25 26.25 33.75  26.25 26.25 35  27.5 26.25 35  27.5 27.5 35  26.25 27.5 35  26.25 27.5 33.75  27.5 28.75 35  25 23.75 36.25  23.75 23.75 36.25  25 25 36.25  23.75 25 36.25  27.5 23.75 36.25  26.25 23.75 36.25  27.5 25 36.25  26.25 25 36.25  25 26.25 36.25  23.75 26.25 36.25  26.25 26.25 36.25  27.5 26.25 36.25  27.5 27.5 36.25  26.25 27.5 36.25  27.5 28.75 36.25  27.5 28.75 37.5  27.5 22.5 32.5  27.5 23.75 32.5  27.5 23.75 31.25  26.25 23.75 31.25  27.5 25 32.5  26.25 23.75 32.5  26.25 25 32.5  26.25 25 31.25  30 22.5 32.5  30 23.75 32.5  30 23.75 31.25  28.75 23.75 31.25  30 25 32.5  28.75 23.75 32.5  28.75 25 32.5  31.25 23.75 32.5  31.25 22.5 32.5  31.25 23.75 31.25  32.5 22.5 32.5  32.5 23.75 32.5  32.5 25 32.5  31.25 25 32.5  32.5 22.5 30  33.75 23.75 31.25  33.75 22.5 31.25  33.75 22.5 30  35 22.5 30  35 23.75 31.25  35 22.5 31.25  35 22.5 32.5  35 23.75 32.5  35 25 32.5  32.5 22.5 31.25  33.75 23.75 32.5  33.75 22.5 32.5  33.75 25 32.5  36.25 23.75 31.25  36.25 22.5 31.25  36.25 22.5 30  37.5 22.5 30  37.5 23.75 31.25  37.5 22.5 31.25  37.5 22.5 32.5  37.5 23.75 32.5  37.5 25 32.5  36.25 23.75 32.5  36.25 22.5 32.5  36.25 25 32.5  38.75 23.75 31.25  38.75 22.5 31.25  38.75 22.5 30  40 22.5 30  40 23.75 31.25  40 22.5 31.25  40 22.5 32.5  40 23.75 32.5  40 25 32.5  38.75 23.75 32.5  38.75 22.5 32.5  38.75 25 32.5  41.25 23.75 31.25  41.25 23.75 32.5  41.25 25 32.5  42.5 25 32.5  26.25 26.25 32.5  26.25 26.25 31.25  32.5 22.5 33.75  32.5 21.25 33.75  31.25 21.25 33.75  32.5 22.5 35  32.5 20 35  32.5 21.25 35  31.25 21.25 35  31.25 22.5 33.75  30 22.5 35  31.25 22.5 35  30 22.5 33.75  33.75 22.5 33.75  33.75 21.25 33.75  33.75 21.25 32.5  35 22.5 33.75  35 22.5 35  33.75 21.25 35  33.75 22.5 35  27.5 23.75 33.75  27.5 25 33.75  30 23.75 33.75  28.75 23.75 33.75  30 25 33.75  30 25 35  30 23.75 35  28.75 23.75 35  28.75 25 33.75  28.75 25 35  31.25 23.75 33.75  32.5 23.75 33.75  32.5 25 33.75  32.5 25 35  32.5 23.75 35  31.25 23.75 35  31.25 25 33.75  31.25 25 35  33.75 23.75 33.75  35 23.75 33.75  35 25 33.75  35 25 35  35 23.75 35  33.75 23.75 35  33.75 25 33.75  33.75 25 35  36.25 23.75 33.75  37.5 23.75 33.75  37.5 25 33.75  37.5 25 35  36.25 22.5 33.75  37.5 22.5 33.75  37.5 22.5 35  37.5 23.75 35  36.25 23.75 35  36.25 22.5 35  36.25 25 33.75  36.25 25 35  38.75 23.75 33.75  40 23.75 33.75  40 25 33.75  40 25 35  38.75 22.5 33.75  40 22.5 33.75  40 22.5 35  40 23.75 35  38.75 23.75 35  38.75 22.5 35  38.75 25 33.75  38.75 25 35  41.25 23.75 33.75  41.25 22.5 32.5  42.5 22.5 32.5  42.5 23.75 33.75  42.5 23.75 32.5  42.5 25 33.75  42.5 25 35  41.25 22.5 33.75  42.5 22.5 33.75  42.5 22.5 35  42.5 23.75 35  41.25 23.75 35  41.25 22.5 35  41.25 25 33.75  41.25 25 35  43.75 23.75 33.75  43.75 22.5 33.75  43.75 23.75 35  43.75 22.5 35  45 22.5 35  45 23.75 35  45 25 35  43.75 2
[...]
<PointData  Vectors="u"> 
<DataArray  type="Float64"  Name="u"  NumberOfComponents="3" format="ascii">1.9999999998240554e+02 -6.4363664810706942e-11 4.9301509235405604e-11  1.9999999998139930e+02 1.5089015637576957e-11 -2.1027287818406088e-10  1.9999999998233969e+02 -8.8023810539813408e-12 -2.5050429177995302e-11  1.9999999998144980e+02 3.9984131410950489e-11 -5.8851669607701766e-11  1.9999999998248316e+02 -2.1495210753439352e-11 7.8058227789649390e-11  1.9999999998146995e+02 -8.6014271920633584e-12 -1.1271399344538024e-10  1.9999999998077823e+02 3.7965119697323498e-11 3.6756697425544524e-11  1.9999999998219451e+02 3.1734919426524606e-11 -1.9013374169012689e-10  1.9999999998307740e+02 -3.1781203109536596e-11 -1.1896938209907816e-10  1.9999999998230697e+02 -6.1748902191255300e-12 -1.1207389375369334e-10  1.9999999998248813e+02 -4.2189709684616142e-11 1.2776768611904717e-10  1.9999999998224274e+02 2.7565446200727201e-11 1.8031237005306863e-11  1.9999999998244289e+02 -1.1191330475529078e-10 3.8447080686746620e-11  1.9999999998236410e+02 1.4181273741910841e-11 3.6317663890058183e-11  1.9999999998145819e+02 5.2010643601641766e-12 -1.0294430109110640e-10  1.9999999998134081e+02 -4.0976041343477385e-11 -2.5235168038131542e-10  1.9999999998059818e+02 2.1354034103120185e-11 -3.0136911855810037e-11  1.9999999998081847e+02 3.0993688774358678e-11 8.4831466906666671e-11  1.9999999998147254e+02 -1.6438704014512944e-11 -2.4613904290272282e-10  1.9999999998150830e+02 -2.3097714573876934e-11 -7.6623469311225163e-11  1.9999999998144276e+02 -5.3902485042348916e-11 -1.1110026454632482e-10  1.9999999998057709e+02 -8.1492934409771881e-11 -1.0581778324545533e-10  1.9999999998067244e+02 3.6309601387623379e-11 2.4004635053373284e-11  1.9999999998082586e+02 1.0169634926855617e-10 9.1338200239642353e-11  1.9999999998144264e+02 -3.8948155663524247e-11 -2.0072196691179415e-10  1.9999999998243084e+02 9.0310491164167565e-11 9.7935096632660289e-11  1.9999999998153643e+02 5.5535848002693977e-12 -3.6360892167746453e-11  1.9999999998244684e+02 7.4915746402326625e-11 7.3909081270261063e-11  1.9999999998145452e+02 -2.4251741488635931e-10 -1.0907853015865217e-10  1.9999999998232050e+02 -2.5749955472131363e-11 -5.7368446079114713e-11  1.9999999998144804e+02 -1.0940231159150627e-10 -9.2612928346737906e-11  1.9999999998146473e+02 -1.1588538474780868e-10 -1.2425392910240589e-10  1.9999999998141331e+02 1.7856750108835409e-12 -8.3030603673735819e-11  1.9999999998131202e+02 -1.0931112731749538e-11 -1.8550977976709315e-10  1.9999999998064305e+02 1.0180657779143195e-10 -2.8924757904912120e-11  1.9999999998080764e+02 3.9896263933511908e-11 1.2439821448729613e-10  1.9999999998247901e+02 -8.2146016199909078e-11 4.4118022064432498e-11  1.9999999998143107e+02 6.2301276551549680e-11 -1.9753569365246126e-10  1.9999999998243354e+02 -3.3552429854411059e-11 -1.5384757743279152e-11  1.9999999998252326e+02 1.3822715996476003e-11 1.2689763001511208e-10  1.9999999998150005e+02 -2.9858123042298045e-11 -3.9013224403695807e-11  1.9999999998233429e+02 -3.9541500486713996e-11 -4.0963331984881572e-11  1.9999999998147629e+02 -5.8441412194976107e-11 -5.8267982364657928e-11  1.9999999998056384e+02 -7.7608714053658701e-11 -1.2171792559707913e-10  1.9999999998063251e+02 1.2126224663249652e-11 -2.1921997800245304e-11  1.9999999998080165e+02 8.3995583479600156e-11 8.1176488319367662e-11  1.9999999998063328e+02 2.6355751346683915e-11 1.1701333711806497e-11  1.9999999998144244e+02 -8.0316592857126306e-11 -1.6522109207964869e-10  1.9999999998144642e+02 -1.8996289907874959e-10 -8.1260035778891372e-11  1.9999999998146671e+02 -8.0316618734536035e-11 -9.0689428252543519e-11  1.9999999998059812e+02 -1.1931022985372305e-10 -1.2605035226701725e-10  1.9999999998063538e+02 -5.3189240194701327e-11 -2.7204659028628920e-11  1.9999999998079747e+02 7.0223418412325547e-11 7.1536322865304258e-11  1.9999999998144312e+02 -1.1066491933487540e-10 -1.8946869113445567e-10  1.9999999998146882e+02 1.8287581937754067e-11 -9.7656460979458541e-11  1.9999999998134132e+02 6.5438080667884984e-12 -2.3555397143063330e-10  1.9999999998061239e+02 4.7248459832982070e-11 -2.9051076971773393e-12  1.9999999998083476e+02 6.6689328467712879e-12 9.9036621782735781e-11  1.9999999998247756e+02 -7.3118012843816163e-11 8.5649115314451439e-11  1.9999999998148900e+02 1.7462468008563109e-11 -1.9133498780508671e-10  1.9999999998240654e+02 -2.1910272307184743e-11 -1.6370561250365708e-11  1.9999999998252864e+02 2.6917355920669775e-12 1.0571798978143210e-10  1.9999999998150318e+02 -6.9184686926528527e-12 -8.1412769614006161e-11  1.9999999998233449e+02 -3.7778418150242872e-11 -7.5938150578859820e-11  1.9999999998147976e+02 -8.9931650045462870e-11 -8.9149639997679832e-11  1.9999999998058894e+02 -9.2728146499393352e-11 -1.2646668020062645e-10  1.9999999998065951e+02 9.0810084802721219e-12 -1.8160709301917092e-11  1.9999999998081447e+02 7.5020370401248394e-11 6.4639407738980550e-11  1.9999999998067275e+02 3.1902041126785116e-11 -2.2517524141014066e-11  1.9999999998144037e+02 -5.5994815205004139e-11 -2.2728133061360004e-10  1.9999999998144861e+02 -1.9147066456872742e-10 -9.6493763082096863e-11  1.9999999998063512e+02 -1.2845237842095521e-10 -1.1725408759330204e-10  1.9999999998143673e+02 -1.0121947378635682e-10 -1.0203496553204161e-10  1.9999999998061566e+02 -2.4697501490597585e-11 -1.9780432779896735e-11  1.9999999998083211e+02 8.4087042589783967e-11 5.8107281404465245e-11  1.9999999998060591e+02 -2.7096925172156837e-11 -1.9582965089913564e-11  1.9999999998145344e+02 -1.4199236277767023e-10 -1.4238956723124281e-10  1.9999999998144250e+02 -1.5762917959639107e-10 -1.2132152306507699e-10  1.9999999998054494e+02 -1.3504476999743427e-10 -1.3044660490764402e-10  1.9999999998063373e+02 3.4197859321268872e-12 1.9736349854600073e-11  1.9999999998145404e+02 -9.1047170032072939e-11 -1.0505695443616530e-10  1.9999999998081503e+02 5.9491375574971258e-11 9.6245921473649339e-11  1.9999999998057788e+02 -1.5304035548000976e-11 -6.3834619824335290e-11  1.9999999998076797e+02 7.3716871251538194e-11 9.6315904502137507e-11  1.9999999998059076e+02 -8.6673753421527761e-11 -1.8774722598964221e-11  1.9999999998143866e+02 -8.5832204793611098e-11 -1.4417232854197738e-10  1.9999999998142980e+02 -2.2717709404883625e-10 -7.8591801775626939e-11  1.9999999998142064e+02 -7.5597212780798704e-11 -1.0972261151770702e-10  1.9999999998059292e+02 -1.2059521327691484e-10 -1.3298758926661708e-10  1.9999999998222472e+02 5.1828482671191913e-11 -1.0789369691756680e-10  1.9999999998310881e+02 -3.0628579710160382e-11 -6.0776008591004720e-11  1.9999999998232167e+02 -8.0803657302803525e-12 -9.2997761333969554e-11  1.9999999998250263e+02 -7.5983673413617770e-13 1.6364293895557848e-10  1.9999999998227884e+02 1.0063421719872047e-10 -2.1211735847397905e-11  1.9999999998244644e+02 -7.7021429079707098e-11 7.7067591531629106e-11  1.9999999998237368e+02 2.4868975253677905e-11 2.5967215164068584e-12  1.9999999998146905e+02 2.2263403537018103e-11 -1.0318300446729591e-10  1.9999999998136576e+02 -5.8260581645906340e-11 -2.1730247661263914e-10  1.9999999998064740e+02 4.1780874545054480e-11 -2.8558313081712754e-11  1.9999999998083902e+02 4.8854939214720286e-11 9.6606728971366776e-11  1.9999999998138966e+02 4.6909593721728455e-11 -1.9177852642461582e-10  1.9999999998147592e+02 -4.5780901257182824e-12 -5.9784285242071612e-11  1.9999999998146689e+02 -7.9965164195206504e-11 -7.6173088921792787e-11  1.9999999998063655e+02 -1.2859447056144548e-10 -1.3784751321134201e-10  1.9999999998063302e+02 3.9579666443943397e-11 -6.4801046012162621e-12  1.9999999998083575e+02 7.6634600053844085e-11 9.5069289233138941e-11  1.9999999998063277e+02 7.2749877260206049e-12 2.1552127593693846e-11  1.9999999998143201e+02 -6.8013322294598848e-11 -1.4895648509941077e-10  1.9999999998145040e+02 -1.2783726803092176e-10 -1.3975811960371030e-10  1.9999999998234682e+02 -2.9854704234578167e-12 6.5709466082056568e-12  1.9999999998246679e+02 5.8826242846976461e-11 8.7776155259085249e-11  1.9999999998150503e+02 -3.7421215734752965e-11 3.2365128435870008e-11  1.9999999998057206e+02 -1.5779005834367997e-10 -1.2578544264107018e-10  1.9999999998146166e+02 -1.2797954275608290e-10 -1.3059466921604563e-10  1.9999999998059766e+02 8.8974553567734937e-12 1.8803869658201682e-12  1.9999999998081267e+02 9.0313166337264931e-11 8.2505678897296869e-11  1.9999999998065337e+02 -3.8111564611797492e-11 3.7443652659689489e-12  1.9999999998142383e+02 -1.2840286018498583e-10 -1.5363436907050239e-10  1.9999999998147248e+02 -1.3279517213991799e-10 -1.1645632716056993e-10  1.9999999998150466e+02 6.3665018098397455e-11 -3.3733354441192141e-11  1.9999999998052112e+02 -1.4395015042711755e-10 -1.1131791581100011e-10  1.9999999998145620e+02 -7.8715024039571620e-11 -1.0518710685127036e-10  1.9999999998057834e+02 8.3532941141659791e-12 -2.9754043896871343e-11  1.9999999998078275e+02 6.1289612565112848e-11 1.1143857889217628e-10  1.9999999998059167e+02 -1.3540321043858894e-11 2.9569973888565315e-12  1.9999999998143110e+02 -1.3437324540851106e-10 -1.7342934988552471e-10  1.9999999998144600e+02 3.5184509820025914e-11 -1.0258506425183369e-10  1.9999999998133094e+02 8.6522606906792805e-12 -2.0325711475231152e-10  1.9999999998064536e+02 4.6991240190305433e-11 -4.9768679795672993e-11  1.9999999998082930e+02 4.3290092882717210e-11 5.9148153228375142e-11  1.9999999998222208e+02 9.5104272050109436e-11 -1.6383789209703108e-10  1.9999999998226710e+02 1.1463558245499684e-10 -5.5273748620930409e-11  1.9999999998242606e+02 -4.9367638419141024e-11 3.2994161508964837e-11  1.9999999998143301e+02 2.6887456830992098e-11 -1.7514233140263547e-10  1.9999999998240145e+02 4.5089356677967382e-11 6.7481879833851777e-12  1.9999999998250712e+02 7.6461706871426619e-12 6.6140326805374243e-11  1.9999999998144520e+02 2.3697900495444027e-11 -8.3279627865395782e-11  1.9999999998231831e+02 -1.1651827488909673e-12 -5.8243211930318554e-11  1.9999999998144764e+02 -5.1765294057972692e-11 -8.6695744079570827e-11  1.9999999998057999e+02 -1.0585675757685131e-10 -1.3379219403003958e-10  1.9999999998061256e+02 1.5088464231240733e-12 -2.9579113495450931e-11  1.9999999998081282e+02 8.6606583967010154e-11 3.8075588367835727e-11  1.9999999998064189e+02 -3.6452748945570953e-12 -1.4524891033147568e-11  1.9999999998142553e+02 -8.6252915364096803e-11 -2.1187762695729854e-10  1.9999999998144190e+02 -2.3268506165551105e-10 -9.0475279959986647e-11  1.9999999998143369e+02 -1.2066055258541033e-10 -1.0001358504567421e-10  1.9999999998063137e+02 -1.3994487631788092e-10 -1.2754167210173312e-10  1.9999999998063572e+02 -9.6572475584150486e-12 -2.8824785828280436e-11  1.9999999998082012e+02 9.6299327320704837e-11 4.6634457663095973e-11  1.9999999998065840e+02 -4.8007821067065064e-11 -2.2016909820299915e-11  1.9999999998146504e+02 -1.1024919470223068e-10 -1.7253909465969951e-10  1.9999999998139012e+02 -1.6713562714603100e-10 -8.0346407870367880e-11  1.9999999998245497e+02 1.3023303904494951e-10 2.1280480750006480e-11  1.9999999998151267e+02 -2.2105984540974728e-11 -5.6060092827956004e-11  1.9999999998056717e+02 -1.1105452404156833e-10 -1.0192825210639657e-10  1.9999999998146762e+02 -1.1682075889437544e-10 -1.3226863995736284e-10  1.9999999998063117e+02 -1.6895346705938420e-11 -8.9749530779712156e-11  1.9999999998082475e+02 4.9204102087841461e-11 2.2789526081319086e-11  1.9999999998065908e+02 -6.6152314114983214e-11 -6.1452021221230077e-11  1.9999999998144037e+02 -1.2901678417931602e-10 -1.7049567931576451e-10  1.9999999998145697e+02 -1.6614233822213553e-10 -1.4016376012828711e-10  1.9999999998057856e+02 -1.3229477803067446e-10 -1.3851878201028812e-10  1.9999999998059906e+02 -1.9590392726144178e-11 6.2774446482385074e-12  1.9999999998144520e+02 -1.0231928024023445e-10 -1.2235616289509010e-10  1.9999999998079849e+02 8.0907437495675441e-11 8.2558463012548209e-11  1.9999999998060815e+02 -1.2351282867398701e-11 -1.9960777107018024e-11  1.9999999998081316e+02 1.0781870204280229e-10 3.6534746298876733e-11  1.9999999998063325e+02 -6.1369316554542920e-12 -4.9871625483562489e-11  1.9999999998141800e+02 -1.2262037821200904e-10 -2.3792438305150988e-10  1.9999999998213556e+02 1.6404811552102670e-11 2.4736264138687323e-11  1.9999999998305589e+02 1.6337678596350291e-11 5.6473147662118816e-11  1.9999999998231465e+02 -5.8551370806743754e-12 1.0068463613307390e-11  1.9999999998243567e+02 1.6252203295579001e-12 -5.0228655385802990e-10  1.9999999998143252e+02 6.7566951151676396e-11 -5.3445634281464920e-12  1.9999999998134189e+02 -2.0737953133458204e-11 -1.1506074862707340e-10  1.9999999998063245e+02 5.9316490149286337e-11 1.5011111582258133e-11  1.9999999998082291e+02 6.0216796582732772e-12 -4.9791925676214417e-10  1.9999999998146464e+02 3.9815058451714015e-12 1.7251947771351907e-11  1.9999999998144912e+02 -9.0734270732100637e-11 -1.5382317004931462e-12  1.9999999998058070e+02 -1.0096294461735864e-10 -3.4753665397899529e-11  1.9999999998064121e+02 7.8437542617106492e-12 4.1240615026012799e-11  1.9999999998078417e+02 8.3290469882559770e-11 -4.4483899468158800e-10  1.9999999998061546e+02 2.3810488176736628e-11 2.3250737404433949e-11  1.9999999998153027e+02 -7.8900820322176995e-12 1.7464150823883609e-10  1.9999999998145685e+02 -1.8198598941299237e-10 3.7184240958677796e-13  1.9999999998153109e+02 9.1365491761312458e-11 -4.1765211226782063e-11  1.9999999998059477e+02 -1.3015201234212661e-10 7.4385009416786563e-12  1.9999999998145233e+02 -9.6670849589168509e-11 2.5895916115425300e-11  1.9999999998064695e+02 -1.3605494672550209e-11 1.2417955090430475e-11  1.9999999998079016e+02 4.9539514226023033e-11 -4.8048191258658489e-10  1.9999999998059653e+02 -5.2755425564368384e-11 -5.1911556380879927e-12  1.9999999998156468e+02 6.2021097761144441e-12 2.5331183218365007e-10  1.9999999998141138e+02 -2.1857142696750605e-10 1.1818886005932946e-11  1.9999999998148360e+02 1.8962725532475859e-11 1.8102897400048593e-11  1.9999999998142820e+02 -1.2141161493610216e-10 1.7570519446413825e-11  1.9999999998057439e+02 -1.3383129926617217e-10 -2.1339164737892843e-11  1.9999999998065960e+02 -1.8372644848150105e-11 5.6530091273400633e-11  1.9999999998078786e+02 6.6287050693414600e-11 -4.9802503721911940e-10  1.9999999998065047e+02 -5.5173067067338113e-11 1.9294465702752975e-11  1.9999999998152805e+02 -2.5214391450141932e-11 1.7500324617296387e-10  1.9999999998141828e+02 -2.1396200949817564e-10 2.2789007297826223e-11  1.9999999998055443e+02 -9.3585777320373780e-11 2.3483517900878845e-11  1.9999999998143431e+02 -1.0284664054498031e-10 4.3497447852213332e-11  1.9999999998063814e+02 1.0928965809051426e-11 2.8653843671439468e-11  1.9999999998078547e+02 4.5775041101652428e-11 -5.0176967212407407e-10  1.9999999998062617e+02 -7.8090168642963705e-12 6.8340997765570774e-12  1.9999999998246892e+02 1.3124183420264694e-10 -6.0782800442774695e-11  1.9999999998142118e+02 -1.2557499947376876e-10 -1.1166789906679222e-10  1.9999999998146126e+02 -4.1217506713483819e-11 2.8906370727861481e-11  1.9999999998145697e+02 -7.1724941586894107e-11 -1.3284661230905680e-10  1.9999999998077013e+02 8.0548328597454669e-11 2.1432080510135402e-11  1.9999999998063419e+02 -1.0879841614628963e-11 -3.4818165626563157e-11  1.9999999998080165e+02 9.3442462311822859e-11 7.9281974669402165e-11  1.9999999998233920e+02 1.7789573679343921e-11 -5.2677742024747804e-11  1.9999999998246921e+02 1.0006012337186693e-10 1.1674174939621000e-10  1.9999999998148465e+02 7.8052418380318599e-11 -2.0872028618493134e-11  1.9999999998216904e+02 -9.8464725710640295e-11 -1.3249887849050504e-10  1.9999999998229359e+02 -2.0833462238371182e-11 5.4670850502247017e-11  1.9999999998308337e+02 -6.2583208635007372e-11 -1.1940580805847416e-10  1.9999999998298873e+02 -2.1726540760407760e-10 -5.6764775316569410e-11  1.9999999998247276e+02 8.6797234717722665e-11 -3.5985628342739307e-11  1.9999999998231652e+02 -2.3239262447295137e-11 -2.4907034493441684e-11  1.9999999998243976e+02 1.2236874445034175e-10 9.1511784506738894e-11  1.9999999998234955e+02 2.5944113482895347e-12 -5.1126163099488499e-11  1.9999999998141385e+02 -9.5454690580687107e-11 -1.1350169202284643e-10  1.9999999998130085e+02 -1.6606286623683311e-10 -8.0452389280203704e-11  1.9999999998056811e+02 -1.5252917589212885e-10 -1.1785996509706930e-10  1.9999999998058561e+02 -1.1552114833247259e-11 8.9790059228715190e-11  1.9999999998076652e+02 8.2633907052982072e-11 4.2276887270926351e-12  1.9999999998059542e+02 2.4726562978773086e-11 -8.1004409583930663e-12  1.9999999998077917e+02 9.9986770747827346e-11 1.0424576050775675e-10  1.9999999998058971e+02 -9.1161338400961852e-12 2.9454658656991226e-11  1.9999999998142127e+02 -1.3681581323902031e-10 -1.9469055249605286e-10  1.9999999998138023e+02 -1.4131252353200774e-10 -1.1205229172082815e-10  1.9999999998144227e+02 -9.7996038146199286e-11 7.4931716596038473e-11  1.9999999998150338e+02 1.4629073660414607e-11 -1.7899255789012361e-12  1.9999999998137994e+02 -4.5464118728669615e-11 -1.0819319546542345e-10  1.9999999998127495e+02 -1.8606561390773886e-10 -4.9916159738739534e-11  1.9999999998055702e+02 -8.2541668307403916e-11 -1.1508903878017018e-10  1.9999999998061466e+02 -2.5248400479703231e-11 1.2841777300717128e-10  1.9999999998076294e+02 5.3968886011014018e-11 5.9552758280386497e-11  1.9999999998060221e+02 -4.9393076369693617e-11 -1.4533006696585414e-11  1.9999999998079761e+02 5.6244080110233824e-11 8.8742905700974641e-11  1.9999999998060159e+02 -5.9251529990726343e-11 7.6249132841251644e-12  1.9999999998139455e+02 -8.8986025291391594e-11 -1.9536245439569257e-10  1.9999999998220008e+02 3.7101558182607378e-11 5.4030681472095051e-11  1.9999999998147760e+02 -2.7854477633319927e-11 -2.4903763822599512e-11  1.9999999998146561e+02 2.7583486503474022e-11 1.1850279507721917e-10  1.9999999998224672e+02 2.5775414967133077e-11 -8.1867675104329544e-11  1.9999999998225420e+02 3.5867772478802823e-11 -2.5366571814931108e-11  1.9999999998143608e+02 1.5735060672511044e-14 5.9129397095662082e-11  1.9999999998229103e+02 1.4927361594363432e-10 -7.0214191904511382e-12  1.9999999998052650e+02 -9.0578459055138071e-11 -5.7028360832931527e-11  1.9999999998059212e+02 -1.6072549444559109e-11 4.4734580701271391e-11  1.9999999998060679e+02 1.3067729237293595e-11 -7.6371523181893680e-11  1.9999999998057052e+02 -1.0183628844386938e-10 -1.6735520739490201e-10  1.9999999998140757e+02 -8.2331077417774001e-11 -7.9717208259641126e-11  1.9999999998078437e+02 7.6248325234862856e-11 9.1753862162747255e-11  1.9999999998084101e+02 3.4476497157892701e-11 9.4021170976426502e-11  1.9999999998055659e+02 -4.8490578142194851e-11 1.2385674878366278e-11  1.9999999998246670e+02 1.0357703422058228e-10 8.0086663155652163e-11  1.9999999998137804e+02 -1.0655814713695522e-10 -1.3720624396913136e-10  1.9999999998142030e+02 2.2714541641835732e-11 2.5780397444691907e-11  1.9999999998139447e+02 -1.4311883503681920e-10 -1.2411832863766950e-10  1.9999999998245215e+02 1.0534042872248480e-10 8.0676654922159152e-11  1.9999999998142550e+02 -2.0524781414725306e-11 2.3595217701012656e-11  1.9999999998235290e+02 -2.5465966257404329e-11 -3.0984112068093309e-11  1.9999999998141911e+02 -8.9982761305458626e-11 -1.4578922174381032e-10  1.9999999998058613e+02 -1.1139444806841418e-10 -1.6285087173483073e-10  1.9999999998064067e+02 3.6668491675659422e-11 -2.9267307112166333e-11  1.9999999998080440e+02 1.1381858392513582e-10 9.9901386331884143e-11  1.9999999998063061e+02 1.3165213325447624e-11 1.5419982657828826e-12  1.9999999998134027e+02 -1.0728282391004657e-10 -1.3583017032719017e-10  1.9999999998139427e+02 -1.8434574007800684e-10 -1.4641819955341410e-10  1.9999999998222481e+02 -1.0896820760338352e-10 -9.3412167550168431e-11  1.9999999998236197e+02 -5.2757843450583427e-12 2.2500572210062721e-11  1.9999999998244047e+02 8.7832652805677046e-11 8.9260428485042748e-11  1.9999999998145941e+02 6.4112276139931243e-11 4.1871137796754722e-11  1.9999999998232127e+02 3.8834990121656492e-11 -6.1074975593347689e-11  1.9999999998138819e+02 -5.459480010