<?xml version="1.0"?>
<VTKFile type="UnstructuredGrid"  version="0.1"  >
<UnstructuredGrid>
<Piece  NumberOfPoints="3798" NumberOfCells="18497">
<Points>
<DataArray  type="Float64"  NumberOfComponents="3"  format="ascii">37.5 0 35  38.75 1.25 36.25  38.75 1.25 35  38.75 0 35  40 0 35  40 1.25 36.25  40 1.25 35  40 2.5 35  40 2.5 36.25  40 2.5 37.5  38.75 0 36.25  40 0 36.25  40 0 37.5  40 1.25 37.5  37.5 0 36.25  37.5 0 37.5  38.75 1.25 37.5  38.75 0 37.5  37.5 1.25 35  37.5 2.5 35  38.75 2.5 36.25  38.75 2.5 35  37.5 1.25 36.25  37.5 1.25 37.5  37.5 2.5 37.5  38.75 2.5 37.5  37.5 2.5 36.25  41.25 1.25 36.25  41.25 0 36.25  41.25 0 35  42.5 0 35  42.5 1.25 36.25  42.5 0 36.25  42.5 0 37.5  42.5 1.25 37.5  42.5 2.5 37.5  41.25 1.25 37.5  41.25 0 37.5  41.25 2.5 37.5  41.25 2.5 36.25  43.75 1.25 36.25  43.75 0 36.25  43.75 1.25 37.5  43.75 0 37.5  45 0 37.5  45 1.25 37.5  45 2.5 37.5  43.75 2.5 37.5  37.5 3.75 36.25  37.5 3.75 35  36.25 3.75 36.25  36.25 3.75 35  37.5 5 35  37.5 5 36.25  37.5 5 37.5  37.5 3.75 37.5  36.25 5 36.25  36.25 5 35  38.75 3.75 36.25  38.75 3.75 35  40 3.75 36.25  40 3.75 35  40 5 35  40 5 36.25  40 5 37.5  40 3.75 37.5  38.75 3.75 37.5  38.75 5 36.25  38.75 5 35  38.75 5 37.5  41.25 3.75 36.25  41.25 3.75 37.5  42.5 3.75 37.5  42.5 5 37.5  41.25 5 37.5  41.25 5 36.25  37.5 6.25 36.25  37.5 6.25 35  36.25 6.25 36.25  36.25 6.25 35  37.5 7.5 35  37.5 7.5 36.25  37.5 7.5 37.5  37.5 6.25 37.5  36.25 7.5 36.25  36.25 7.5 35  38.75 6.25 36.25  38.75 6.25 35  40 6.25 36.25  40 6.25 35  40 7.5 35  40 7.5 36.25  40 7.5 37.5  40 6.25 37.5  38.75 6.25 37.5  38.75 7.5 36.25  38.75 7.5 35  38.75 7.5 37.5  41.25 6.25 36.25  41.25 6.25 37.5  42.5 6.25 37.5  42.5 7.5 37.5  41.25 7.5 37.5  41.25 7.5 36.25  37.5 8.75 36.25  37.5 8.75 35  36.25 8.75 36.25  36.25 8.75 35  37.5 10 35  37.5 10 36.25  37.5 10 37.5  37.5 8.75 37.5  38.75 8.75 36.25  38.75 8.75 35  40 8.75 36.25  40 8.75 35  40 10 35  40 10 36.25  40 10 37.5  40 8.75 37.5  38.75 8.75 37.5  38.75 10 36.25  38.75 10 35  38.75 10 37.5  41.25 8.75 36.25  41.25 8.75 37.5  42.5 8.75 37.5  42.5 10 37.5  41.25 10 37.5  41.25 10 36.25  38.75 11.25 36.25  38.75 11.25 35  40 11.25 36.25  40 11.25 35  40 12.5 35  40 12.5 36.25  40 12.5 37.5  40 11.25 37.5  38.75 11.25 37.5  37.5 11.25 35  37.5 12.5 35  38.75 12.5 36.25  38.75 12.5 35  38.75 12.5 37.5  41.25 11.25 36.25  41.25 11.25 37.5  42.5 11.25 37.5  42.5 12.5 37.5  41.25 12.5 37.5  41.25 12.5 36.25  38.75 13.75 36.25  40 13.75 36.25  40 13.75 37.5  40 15 37.5  38.75 13.75 37.5  38.75 15 37.5  38.75 15 36.25  41.25 13.75 36.25  41.25 13.75 37.5  42.5 13.75 37.5  42.5 15 37.5  41.25 15 37.5  40 16.25 37.5  38.75 16.25 37.5  38.75 16.25 36.25  40 17.5 37.5  38.75 17.5 37.5  38.75 17.5 36.25  40 18.75 37.5  38.75 18.75 37.5  38.75 18.75 36.25  40 20 37.5  37.5 20 37.5  38.75 20 37.5  37.5 1.25 38.75  36.25 1.25 38.75  37.5 2.5 38.75  37.5 2.5 40  37.5 0 38.75  36.25 0 38.75  37.5 0 40  37.5 1.25 40  36.25 1.25 40  36.25 0 40  36.25 2.5 38.75  35 2.5 40  36.25 2.5 40  38.75 1.25 38.75  40 1.25 38.75  40 2.5 38.75  40 2.5 40  38.75 0 38.75  40 0 38.75  40 0 40  40 1.25 40  38.75 1.25 40  38.75 0 40  38.75 2.5 38.75  38.75 2.5 40  41.25 1.25 38.75  42.5 1.25 38.75  42.5 2.5 38.75  42.5 2.5 40  41.25 0 38.75  42.5 0 38.75  42.5 0 40  42.5 1.25 40  41.25 1.25 40  41.25 0 40  41.25 2.5 38.75  41.25 2.5 40  43.75 1.25 38.75  45 1.25 38.75  45 2.5 38.75  45 2.5 40  43.75 0 38.75  45 0 38.75  45 0 40  45 1.25 40  43.75 1.25 40  43.75 0 40  43.75 2.5 38.75  43.75 2.5 40  46.25 1.25 38.75  46.25 0 38.75  46.25 1.25 40  46.25 0 40  47.5 0 40  47.5 1.25 40  47.5 2.5 40  46.25 2.5 40  46.25 2.5 38.75  37.5 3.75 38.75  36.25 3.75 38.75  37.5 5 38.75  37.5 5 40  37.5 3.75 40  36.25 3.75 40  38.75 3.75 38.75  40 3.75 38.75  40 5 38.75  40 5 40  40 3.75 40  38.75 3.75 40  38.75 5 38.75  38.75 5 40  41.25 3.75 38.75  42.5 3.75 38.75  42.5 5 38.75  42.5 5 40  42.5 3.75 40  41.25 3.75 40  41.25 5 38.75  41.25 5 40  43.75 3.75 38.75  43.75 3.75 37.5  45 3.75 38.75  45 3.75 37.5  45 5 37.5  45 5 38.75  45 5 40  45 3.75 40  43.75 3.75 40  43.75 5 38.75  43.75 5 37.5  43.75 5 40  46.25 3.75 38.75  46.25 3.75 37.5  46.25 2.5 37.5  47.5 2.5 37.5  47.5 3.75 38.75  47.5 3.75 37.5  47.5 5 37.5  47.5 5 38.75  47.5 5 40  47.5 2.5 38.75  47.5 3.75 40  46.25 3.75 40  46.25 5 38.75  46.25 5 37.5  46.25 5 40  48.75 3.75 38.75  48.75 3.75 40  48.75 5 40  50 5 40  48.75 5 38.75  38.75 6.25 38.75  40 6.25 38.75  40 7.5 38.75  40 7.5 40  40 6.25 40  38.75 6.25 40  38.75 7.5 38.75  38.75 7.5 40  41.25 6.25 38.75  42.5 6.25 38.75  42.5 7.5 38.75  42.5 7.5 40  42.5 6.25 40  41.25 6.25 40  41.25 7.5 38.75  41.25 7.5 40  43.75 6.25 38.75  43.75 6.25 37.5  45 6.25 38.75  45 6.25 37.5  45 7.5 37.5  45 7.5 38.75  45 7.5 40  45 6.25 40  43.75 6.25 40  43.75 7.5 38.75  43.75 7.5 37.5  43.75 7.5 40  46.25 6.25 38.75  46.25 6.25 37.5  47.5 6.25 38.75  47.5 6.25 37.5  47.5 7.5 37.5  47.5 7.5 38.75  47.5 7.5 40  47.5 6.25 40  46.25 6.25 40  46.25 7.5 38.75  46.25 7.5 37.5  46.25 7.5 40  48.75 6.25 38.75  48.75 6.25 37.5  48.75 5 37.5  50 5 37.5  50 6.25 38.75  50 6.25 37.5  50 7.5 37.5  50 7.5 38.75  50 7.5 40  50 5 38.75  50 6.25 40  48.75 6.25 40  48.75 7.5 38.75  48.75 7.5 37.5  48.75 7.5 40  38.75 8.75 38.75  40 8.75 38.75  40 10 38.75  40 10 40  40 8.75 40  38.75 8.75 40  38.75 10 38.75  38.75 10 40  41.25 8.75 38.75  42.5 8.75 38.75  42.5 10 38.75  42.5 10 40  42.5 8.75 40  41.25 8.75 40  41.25 10 38.75  41.25 10 40  43.75 8.75 38.75  43.75 8.75 37.5  45 8.75 38.75  45 8.75 37.5  45 10 37.5  45 10 38.75  45 10 40  45 8.75 40  43.75 8.75 40  43.75 10 38.75  43.75 10 37.5  43.75 10 40  46.25 8.75 38.75  46.25 8.75 37.5  47.5 8.75 38.75  47.5 8.75 37.5  47.5 10 37.5  47.5 10 38.75  47.5 10 40  47.5 8.75 40  46.25 8.75 40  46.25 10 38.75  46.25 10 37.5  46.25 10 40  48.75 8.75 38.75  48.75 8.75 37.5  50 8.75 38.75  50 8.75 37.5  50 10 37.5  50 10 38.75  50 10 40  50 8.75 40  48.75 8.75 40  48.75 10 38.75  48.75 10 37.5  48.75 10 40  38.75 11.25 38.75  40 11.25 38.75  40 12.5 38.75  40 12.5 40  40 11.25 40  38.75 11.25 40  38.75 12.5 38.75  38.75 12.5 40  41.25 11.25 38.75  42.5 11.25 38.75  42.5 12.5 38.75  42.5 12.5 40  42.5 11.25 40  41.25 11.25 40  41.25 12.5 38.75  41.25 12.5 40  43.75 11.25 38.75  43.75 11.25 37.5  45 11.25 38.75  45 11.25 37.5  45 12.5 37.5  45 12.5 38.75  45 12.5 40  45 11.25 40  43.75 11.25 40  43.75 12.5 38.75  43.75 12.5 37.5  43.75 12.5 40  46.25 11.25 38.75  46.25 11.25 37.5  47.5 11.25 38.75  47.5 11.25 37.5  47.5 12.5 37.5  47.5 12.5 38.75  47.5 12.5 40  47.5 11.25 40  46.25 11.25 40  46.25 12.5 38.75  46.25 12.5 37.5  46.25 12.5 40  48.75 11.25 38.75  48.75 11.25 37.5  50 11.25 38.75  50 11.25 37.5  50 12.5 37.5  50 12.5 38.75  50 12.5 40  50 11.25 40  48.75 11.25 40  48.75 12.5 38.75  48.75 12.5 37.5  48.75 12.5 40  40 13.75 38.75  38.75 13.75 38.75  40 15 38.75  40 15 40  40 13.75 40  38.75 13.75 40  38.75 15 38.75  38.75 15 40  41.25 13.75 38.75  42.5 13.75 38.75  42.5 15 38.75  42.5 15 40  42.5 13.75 40  41.25 13.75 40  41.25 15 38.75  41.25 15 40  43.75 13.75 38.75  43.75 13.75 37.5  45 13.75 38.75  45 13.75 37.5  45 15 37.5  45 15 38.75  45 15 40  45 13.75 40  43.75 13.75 40  43.75 15 38.75  43.75 15 37.5  43.75 15 40  46.25 13.75 38.75  46.25 13.75 37.5  47.5 13.75 38.75  47.5 13.75 37.5  47.5 15 37.5  47.5 15 38.75  47.5 15 40  47.5 13.75 40  46.25 13.75 40  46.25 15 38.75  46.25 15 37.5  46.25 15 40  48.75 13.75 38.75  48.75 13.75 37.5  50 13.75 38.75  50 13.75 37.5  50 15 37.5  50 15 38.75  50 15 40  50 13.75 40  48.75 13.75 40  48.75 15 38.75  48.75 15 37.5  48.75 15 40  40 16.25 38.75  38.75 16.25 38.75  40 17.5 38.75  40 17.5 40  40 16.25 40  38.75 16.25 40  38.75 17.5 38.75  38.75 17.5 40  41.25 16.25 38.75  41.25 16.25 37.5  42.5 16.25 38.75  42.5 16.25 37.5  42.5 17.5 37.5  42.5 17.5 38.75  42.5 17.5 40  42.5 16.25 40  41.25 16.25 40  41.25 17.5 38.75  41.25 17.5 37.5  41.25 17.5 40  43.75 16.25 38.75  43.75 16.25 37.5  45 16.25 38.75  45 16.25 37.5  45 17.5 37.5  45 17.5 38.75  45 17.5 40  45 16.25 40  43.75 16.25 40  43.75 17.5 38.75  43.75 17.5 37.5  43.75 17.5 40  46.25 16.25 38.75  46.25 16.25 37.5  47.5 16.25 38.75  47.5 16.25 37.5  47.5 17.5 37.5  47.5 17.5 38.75  47.5 17.5 40  47.5 16.25 40  46.25 16.25 40  46.25 17.5 38.75  46.25 17.5 37.5  46.25 17.5 40  48.75 16.25 38.75  48.75 16.25 37.5  50 16.25 38.75  50 16.25 37.5  50 17.5 37.5  50 17.5 38.75  50 17.5 40  50 16.25 40  48.75 16.25 40  48.75 17.5 38.75  48.75 17.5 37.5  48.75 17.5 40  40 18.75 38.75  38.75 18.75 38.75  40 20 38.75  40 20 40  40 18.75 40  38.75 18.75 40  38.75 20 38.75  38.75 20 40  41.25 18.75 38.75  41.25 18.75 37.5  42.5 18.75 38.75  42.5 18.75 37.5  42.5 20 37.5  42.5 20 38.75  42.5 20 40  42.5 18.75 40  41.25 18.75 40  41.25 20 38.75  41.25 20 37.5  41.25 20 40  43.75 18.75 38.75  43.75 18.75 37.5  45 18.75 38.75  45 18.75 37.5  45 20 37.5  45 20 38.75  45 20 40  45 18.75 40  43.75 18.75 40  43.75 20 38.75  43.75 20 37.5  43.75 20 40  46.25 18.75 38.75  47.5 18.75 38.75  47.5 18.75 40  47.5 20 40  46.25 18.75 40  46.25 20 40  46.25 20 38.75  48.75 18.75 38.75  50 18.75 38.75  50 18.75 40  50 20 40  48.75 18.75 40  48.75 20 40  43.75 21.25 38.75  46.25 21.25 38.75  37.5 1.25 41.25  36.25 1.25 41.25  37.5 2.5 41.25  37.5 2.5 42.5  37.5 0 41.25  36.25 0 41.25  37.5 0 42.5  37.5 1.25 42.5  36.25 1.25 42.5  36.25 0 42.5  36.25 2.5 41.25  36.25 2.5 42.5  38.75 1.25 41.25  40 1.25 41.25  40 2.5 41.25  40 2.5 42.5  38.75 0 41.25  40 0 41.25  40 0 42.5  40 1.25 42.5  38.75 1.25 42.5  38.75 0 42.5  38.75 2.5 41.25  38.75 2.5 42.5  41.25 1.25 41.25  42.5 1.25 41.25  42.5 2.5 41.25  42.5 2.5 42.5  41.25 0 41.25  42.5 0 41.25  42.5 0 42.5  42.5 1.25 42.5  41.25 1.25 42.5  41.25 0 42.5  41.25 2.5 41.25  41.25 2.5 42.5  43.75 1.25 41.25  45 1.25 41.25  45 2.5 41.25  45 2.5 42.5  43.75 0 41.25  45 0 41.25  45 0 42.5  45 1.25 42.5  43.75 1.25 42.5  43.75 0 42.5  43.75 2.5 41.25  43.75 2.5 42.5  46.25 1.25 41.25  47.5 1.25 41.25  47.5 2.5 4
[...]
<PointData  Vectors="u"> 
<DataArray  type="Float64"  Name="u"  NumberOfComponents="3" format="ascii">1.9999999997431897e+02 6.4600735861931102e-10 -4.2614706508918202e-12  1.9999999997332782e+02 -1.3154613835049414e-10 -1.0279111686694355e-10  1.9999999997320378e+02 -2.5428963932355879e-10 -1.0940684023069878e-10  1.9999999997337778e+02 -6.3434595027753258e-11 -5.1720345614203152e-11  1.9999999997274682e+02 6.1299999641026243e-10 -3.5685995333291926e-11  1.9999999997246479e+02 -1.1834329451302561e-10 -8.1140641052507259e-11  1.9999999997261304e+02 -5.4208672661277626e-11 6.2901490848665131e-13  1.9999999997274145e+02 9.9996982720371194e-11 -1.7660301468514258e-11  1.9999999997264155e+02 3.5760098235398119e-12 -2.5184346045711972e-12  1.9999999997278874e+02 1.0474460115654638e-10 7.8953373124329871e-11  1.9999999997333197e+02 -3.1327278088570087e-10 2.2518423068031968e-11  1.9999999997262236e+02 1.2466664974648759e-10 9.5508728906447102e-12  1.9999999997273974e+02 5.5307324692726963e-10 7.7319760036944666e-11  1.9999999997270174e+02 -1.2159737588727251e-10 1.3679580278897740e-11  1.9999999997414730e+02 4.1851541350849446e-11 -6.4931300383602375e-11  1.9999999997432869e+02 4.9837891705910888e-10 3.4241109971137514e-11  1.9999999997330460e+02 -7.9042957728590868e-11 -9.0590417212657998e-11  1.9999999997342960e+02 1.3000971296977224e-10 -7.7428148558748770e-11  1.9999999997417879e+02 -9.5909714025451195e-11 1.1726317852888127e-11  1.9999999997433443e+02 1.0379542724463210e-10 -2.8805040898734328e-11  1.9999999997329175e+02 -2.1168863742265277e-10 -1.3556300658371480e-10  1.9999999997336838e+02 -8.7759293018358112e-11 4.9909134950045636e-11  1.9999999997400582e+02 -1.0588676921266488e-10 -1.2870015312006706e-10  1.9999999997423373e+02 1.0117734487504633e-11 2.2693824683349099e-11  1.9999999997429322e+02 7.2238526431780153e-11 6.4836587774596360e-11  1.9999999997337125e+02 4.4310793184444603e-11 -1.1412725209346902e-10  1.9999999997419448e+02 3.7765424788369091e-13 -1.8376008667905317e-11  1.9999999997183230e+02 -1.5419274767911867e-10 -5.8044435156522336e-11  1.9999999997163641e+02 -3.8687820125634281e-10 -1.7286261644122486e-10  1.9999999997185193e+02 -2.3064449230915228e-11 5.5713611864437591e-12  1.9999999997120830e+02 5.8895550109000672e-10 -2.6484289315977704e-11  1.9999999997085445e+02 -1.6395729060122022e-10 -4.5302991042627915e-11  1.9999999997101020e+02 3.1412066609135927e-11 -3.3998902190008174e-11  1.9999999997120395e+02 6.0616885932438532e-10 8.5521840499205420e-11  1.9999999997108833e+02 -7.1522122265018767e-11 -5.3335490261601085e-11  1.9999999997121432e+02 1.2516446744266582e-10 1.6197979213343551e-11  1.9999999997176195e+02 -1.1043715441771862e-10 -1.0382355892675499e-10  1.9999999997181843e+02 -1.0364514740727623e-13 -5.1697442149180172e-11  1.9999999997185421e+02 5.9178303126219986e-11 -1.4854920169788752e-10  1.9999999997179552e+02 -2.6212249118568606e-10 -1.9031240400645013e-11  1.9999999997032182e+02 -8.8955459390990858e-11 -7.4355785367175320e-11  1.9999999997023818e+02 -4.2759789666382627e-10 -7.8972066419960699e-11  1.9999999997020555e+02 -2.0116875563257554e-10 -1.9839275146200192e-10  1.9999999997033984e+02 -1.4189917666044717e-11 -5.8106324093723432e-11  1.9999999996970493e+02 5.5092869893220307e-10 9.1546189402905469e-12  1.9999999996955941e+02 -1.0057541132627064e-10 -3.6009250814203390e-11  1.9999999996971141e+02 1.5400762722097220e-10 -4.4838672600043453e-11  1.9999999997036318e+02 -4.4493351344080454e-11 -1.3641737261923201e-11  1.9999999997401150e+02 -1.2155235750662090e-10 -1.1433438138997426e-10  1.9999999997416015e+02 3.2463128673535154e-11 6.7372621973229861e-11  1.9999999997494214e+02 -1.0536265142245516e-10 -9.6717022133013722e-11  1.9999999997481973e+02 -2.3870802524469821e-10 -9.0455515318593414e-11  1.9999999997434594e+02 1.1916109435162381e-10 -5.0160442627966668e-11  1.9999999997418433e+02 3.1828301368750777e-12 -3.2074784708572077e-11  1.9999999997428483e+02 1.0221029736797349e-10 5.9502496410859907e-11  1.9999999997417902e+02 -3.5815628940093405e-11 -3.0158052678618344e-11  1.9999999997493700e+02 -1.5485221224277534e-10 -9.8628106759091711e-11  1.9999999997494822e+02 -3.9442354772464492e-12 4.4531416191718006e-11  1.9999999997333367e+02 -9.6732848635383176e-11 -1.4666013891448056e-10  1.9999999997323656e+02 -1.8701489582069306e-10 -8.0980624028051193e-11  1.9999999997253332e+02 -1.1358302185127039e-10 -9.6202197009342627e-11  1.9999999997258215e+02 -2.1585572021660460e-12 7.7537729516554025e-11  1.9999999997273812e+02 1.3227045898334794e-10 -3.3766195052417981e-11  1.9999999997265886e+02 2.0168601233042948e-11 -2.5088800447135271e-11  1.9999999997275640e+02 9.5459512553447899e-11 6.2691365867434283e-11  1.9999999997269117e+02 -4.5153827932835371e-11 -1.2573812520449892e-11  1.9999999997331972e+02 -1.1251134443661264e-10 -1.3388748984183591e-10  1.9999999997330488e+02 -9.9819685153649422e-11 -1.3546791098336492e-10  1.9999999997336448e+02 -6.5186284751981581e-11 -1.7950805854092652e-11  1.9999999997338611e+02 5.6228023479334000e-11 1.3386637487583461e-11  1.9999999997185338e+02 -8.6329753214903133e-11 -5.6304611755146262e-11  1.9999999997176744e+02 -1.0964635070234072e-10 -1.8121725484668310e-10  1.9999999997104547e+02 -6.0716197799325582e-12 -3.1276788810084277e-11  1.9999999997122151e+02 1.0870349521962346e-10 -9.2418897123845309e-12  1.9999999997192339e+02 8.6705271226621652e-12 -8.2985640884994055e-12  1.9999999997181249e+02 -2.5008161477007552e-10 -2.6332211266232172e-11  1.9999999997402440e+02 -1.2333664497501822e-10 -1.2185640959418709e-10  1.9999999997416253e+02 -3.4932206534174618e-11 1.1475402671451119e-11  1.9999999997493509e+02 -6.8848963578002627e-11 -1.0256436688223024e-10  1.9999999997480882e+02 -2.3246336335189876e-10 -8.4125905775918478e-11  1.9999999997435211e+02 1.1554382145522484e-10 -4.7755303870393731e-11  1.9999999997420542e+02 8.6687888535197824e-12 -2.9019105857900880e-11  1.9999999997430064e+02 9.6020636906068156e-11 8.9430620215019258e-11  1.9999999997419366e+02 -2.7280357863651940e-12 4.8894423445125637e-12  1.9999999997486836e+02 -1.6679707650582904e-10 -7.8465920116433153e-11  1.9999999997492864e+02 -2.2168635575193943e-11 6.4839840373466454e-11  1.9999999997334717e+02 -7.4289730961621769e-11 -1.0911566679798050e-10  1.9999999997324369e+02 -1.9689653592385557e-10 -1.5197605092065911e-10  1.9999999997252539e+02 -1.1142130007633624e-10 -1.3830681990074994e-10  1.9999999997256683e+02 -5.3039487788421940e-11 2.6249368106126491e-11  1.9999999997270217e+02 1.3261570382978074e-10 -3.1002318639359713e-11  1.9999999997266093e+02 3.7567085966329798e-11 -3.0375025755068105e-11  1.9999999997274310e+02 1.0801434547504254e-10 3.4100073476348106e-11  1.9999999997266409e+02 -2.3656678000366697e-11 -8.5791612744180501e-12  1.9999999997331122e+02 -7.3098332595374650e-11 -1.7231388770981203e-10  1.9999999997331199e+02 -1.0960349695275329e-10 -1.0892867106557496e-10  1.9999999997343292e+02 -5.4745157101914850e-11 -1.4141772763353356e-11  1.9999999997341371e+02 -4.7809530349476460e-12 -4.8661774731060357e-11  1.9999999997185682e+02 -5.3111608603379804e-11 -6.5612435870965696e-11  1.9999999997179606e+02 -1.0698155813086785e-10 -1.9185605425658489e-10  1.9999999997105797e+02 -2.5373395641089539e-11 -1.7910441383406514e-11  1.9999999997125215e+02 1.1505815125646052e-10 -1.0053056284122659e-11  1.9999999997184730e+02 3.3186425648223126e-11 -7.6988770994510124e-11  1.9999999997179032e+02 -2.2071627833611256e-10 -1.7898191938396810e-11  1.9999999997404936e+02 -9.9310432091982931e-11 -1.4016984077146662e-10  1.9999999997414290e+02 1.5667840777962354e-11 3.2908719259823411e-11  1.9999999997490434e+02 -9.2756000067213533e-11 -1.3165770740771868e-10  1.9999999997481379e+02 -1.4975097471076829e-10 -9.5296192149310478e-11  1.9999999997435941e+02 8.2065539221654701e-11 -3.5528758838814791e-11  1.9999999997421870e+02 1.2022545152421117e-11 -5.8514407917644074e-11  1.9999999997432747e+02 9.6028817117331769e-11 7.2660205609590384e-11  1.9999999997423063e+02 -6.0527601549991189e-11 -2.1752456853848345e-11  1.9999999997337090e+02 -7.8059809608616811e-11 -1.3079897757657591e-10  1.9999999997323187e+02 -1.5636965208225738e-10 -1.1083140574125930e-10  1.9999999997248560e+02 -8.2205405064285010e-11 -1.3657817288615149e-10  1.9999999997256396e+02 -4.5137909452118622e-11 6.6108328009843342e-11  1.9999999997270908e+02 1.0707972205968654e-10 -8.5544254943555951e-12  1.9999999997262157e+02 5.3538686376807896e-12 -1.0891817198646747e-11  1.9999999997276242e+02 1.2486503081736073e-10 3.5832093428110422e-11  1.9999999997267076e+02 -1.8601526351924296e-11 -6.0091676414674036e-11  1.9999999997330761e+02 -1.1461817093062853e-10 -2.0205909791516131e-10  1.9999999997334575e+02 -1.4852211358901866e-10 -1.4986828323907246e-10  1.9999999997339702e+02 -6.8468839467050206e-11 1.1092307914508092e-12  1.9999999997340851e+02 1.5525757559512831e-11 -2.9559204933204279e-11  1.9999999997182661e+02 -8.6215972300694863e-11 -5.8362475654725210e-11  1.9999999997179444e+02 -9.7969420913699763e-11 -2.1611918297928600e-10  1.9999999997101048e+02 -3.1790819748382071e-11 -1.1117022287755597e-11  1.9999999997122933e+02 8.5892118706964097e-11 -1.6883961622866513e-11  1.9999999997183372e+02 1.7593014489892327e-11 -2.8408813456782898e-11  1.9999999997177255e+02 -1.9444922617725017e-10 -4.6580056632894578e-11  1.9999999997336673e+02 -7.0645016708343130e-11 -1.1444057482389327e-10  1.9999999997321473e+02 -1.9289441479793755e-10 -1.0809633039859879e-10  1.9999999997249631e+02 -1.2890217448789738e-10 -1.1334417515172848e-10  1.9999999997257549e+02 -7.2627888133371365e-11 6.0418670897894116e-11  1.9999999997268625e+02 1.0655979084352436e-10 -2.1478348837720974e-11  1.9999999997260039e+02 -2.0028912293988940e-11 -6.4388284800920848e-11  1.9999999997273366e+02 8.1028615515757489e-11 4.6416487468491545e-11  1.9999999997263728e+02 -6.2183871686395885e-11 -5.0585369564656820e-11  1.9999999997337795e+02 -1.1004333416407373e-10 -2.3197545781680370e-10  1.9999999997418590e+02 -2.9853677835385361e-11 4.7549470944143270e-11  1.9999999997433645e+02 1.6006237771473175e-10 -4.7722460049382226e-11  1.9999999997328797e+02 -1.3585391968541291e-10 -1.3089163143407289e-10  1.9999999997337827e+02 -6.7295703920023388e-11 6.5072423980934301e-12  1.9999999997337389e+02 7.5065958199937369e-12 -6.8374988295492221e-11  1.9999999997180117e+02 -9.9754062362108469e-11 -6.6145364180511113e-11  1.9999999997175340e+02 -1.5598208920009416e-10 -1.9343030581381626e-10  1.9999999997102867e+02 -2.3456239707109581e-11 -3.1433253102217693e-11  1.9999999997125110e+02 6.8747310432961512e-11 4.8155914827829082e-12  1.9999999997183144e+02 -1.0722259358640347e-11 -5.4353213685024427e-11  1.9999999997178875e+02 -2.8273386007370458e-10 -7.6336551312524653e-11  1.9999999997331571e+02 -8.5933233110079780e-11 -9.9645792242168330e-11  1.9999999997238541e+02 -1.2672871287269844e-10 -6.0451392304919735e-11  1.9999999997262910e+02 -4.7230322614479151e-11 -5.1318089218658234e-11  1.9999999997272374e+02 1.0713294962169808e-10 3.0098839356252311e-11  1.9999999997331824e+02 -1.1726913971744805e-10 -2.3261051592024314e-10  1.9999999997337190e+02 6.1797641282508621e-12 -4.1932644596704279e-11  1.9999999997329834e+02 -2.9810632932413208e-10 -4.9600629546320505e-11  1.9999999997179836e+02 -4.4613799280271640e-11 -6.5915183375167710e-11  1.9999999997176576e+02 -1.0210467432676680e-10 -1.8351863068586578e-10  1.9999999997103467e+02 -2.7848740189319372e-11 1.6381643170942639e-11  1.9999999997120577e+02 1.1473318788409582e-10 -6.7682471751773219e-12  1.9999999997190378e+02 -8.9239930940825812e-11 2.9119825694187343e-12  1.9999999997254397e+02 2.5818476021161881e-11 -8.1405144230657554e-12  1.9999999997331076e+02 -9.4580963211156248e-11 -1.8644209401566575e-10  1.9999999997335968e+02 -5.0040426538424568e-11 -8.2100580460008081e-11  1.9999999997275714e+02 1.5014204581981382e-10 7.8466035314362412e-12  1.9999999997343181e+02 5.3115187435988813e-11 -7.9576496252830593e-12  1.9999999997335124e+02 -1.9228520909186023e-10 -8.7063961651481453e-11  1.9999999997254153e+02 1.7060596987119356e-11 2.0707108994507751e-11  1.9999999997334123e+02 -6.1923383503861547e-11 -2.5106597450159949e-10  1.9999999997338801e+02 -2.0441984853261773e-11 -3.6919404460800591e-11  1.9999999997273767e+02 5.3892207431394666e-11 -1.1981630184631220e-11  1.9999999997432647e+02 1.0486156066124098e-11 3.5928194970641903e-11  1.9999999997343451e+02 4.1670466209276825e-11 2.6958642077347124e-11  1.9999999997405840e+02 -1.0441529988380731e-11 -1.1922545517952984e-10  1.9999999997491739e+02 -5.0805844254350531e-11 -9.7849510264673115e-11  1.9999999997414500e+02 5.1098427571178242e-11 -6.7052838804041696e-11  1.9999999997433710e+02 4.7512079012725208e-11 9.2672618913321703e-11  1.9999999997415188e+02 4.1527535124457837e-11 2.5980887259154366e-11  1.9999999997495343e+02 -3.2305573102943891e-10 -1.8740914950258437e-11  1.9999999997431709e+02 4.4121212334127103e-10 6.7642077440300280e-11  1.9999999997421310e+02 -5.9437427721370174e-11 8.5693840729359306e-12  1.9999999997489249e+02 -2.1252786229282220e-11 -1.7605245163433648e-10  1.9999999997497358e+02 5.6318973429093657e-12 -9.8384190204977012e-11  1.9999999997483107e+02 -8.4602620323590019e-12 -2.1836762647593390e-10  1.9999999997591362e+02 1.9223454810876220e-11 8.6557633657616620e-11  1.9999999997499970e+02 2.5209085053433927e-11 -1.1311560808349043e-10  1.9999999997334967e+02 -8.1217742395106885e-11 -1.1578848370120896e-10  1.9999999997253937e+02 -5.1729111424237739e-11 -1.1717839642813287e-10  1.9999999997258499e+02 2.4685926546076802e-11 -4.9702558930850018e-11  1.9999999997278019e+02 3.3075354035953894e-11 1.0147091695822165e-10  1.9999999997338435e+02 -3.5681593564558722e-10 -4.7010548041243174e-11  1.9999999997263836e+02 9.7140416353633678e-11 -4.4377358434470005e-11  1.9999999997275441e+02 4.7794282932263534e-10 7.0917855954584258e-11  1.9999999997267750e+02 -5.0203206400998105e-11 -1.9194282859024860e-11  1.9999999997333359e+02 -2.7130580981524983e-11 -1.4736499401036485e-10  1.9999999997336622e+02 4.0784567427213254e-11 -6.9381848490218655e-11  1.9999999997325460e+02 -1.5076015794025706e-11 -1.8981346999600758e-10  1.9999999997337301e+02 2.5349606280604127e-11 -7.5040802778324616e-11  1.9999999997177716e+02 -1.0226207751064221e-10 -8.9045785161114371e-11  1.9999999997084217e+02 -9.4329483086062654e-11 -9.7004046147688068e-11  1.9999999997115026e+02 -2.2586427301489289e-11 -4.0786233710506954e-11  1.9999999997123280e+02 4.5101391299246267e-11 1.1253309370841953e-10  1.9999999997179776e+02 -4.3530107264231447e-10 -1.2056524270687958e-11  1.9999999997104450e+02 6.3545309232937217e-11 -2.5143311967722145e-11  1.9999999997121546e+02 4.6404541080938459e-10 9.2639483793384244e-11  1.9999999997111607e+02 -4.9528389830497836e-11 4.3198907938705535e-11  1.9999999997177437e+02 6.8397873537552327e-12 -1.6765545618570611e-10  1.9999999997185759e+02 3.3171570537697469e-11 -8.2259385540452576e-11  1.9999999997169195e+02 1.8233327926365157e-11 -1.9004024053790075e-10  1.9999999997185506e+02 2.9662399656345776e-12 -6.3506489651656988e-11  1.9999999997025679e+02 -1.5718680685605101e-10 -8.6956790096745569e-11  1.9999999996936754e+02 -9.7291940400384422e-11 -9.8583762150796587e-11  1.9999999996958272e+02 2.5531240146155696e-11 -3.9629923456879263e-11  1.9999999996970550e+02 1.0869527336075625e-10 9.0029494913561071e-11  1.9999999997028161e+02 -3.8097097209655286e-10 2.3602005603032768e-12  1.9999999996950825e+02 1.2208452949526566e-10 -9.3142658197825899e-12  1.9999999996966889e+02 4.7824483068106330e-10 1.0277554599626733e-10  1.9999999996963831e+02 -9.4795386481502724e-11 2.8323823660007103e-11  1.9999999997019287e+02 -1.6449525585879665e-11 -8.7485725614526133e-11  1.9999999997029946e+02 7.8524401306812894e-12 -6.1178195098956949e-11  1.9999999997022374e+02 -1.5386523687419745e-10 -8.7573677631549048e-11  1.9999999997028476e+02 5.5818890740031416e-11 -9.2370258516268204e-11  1.9999999996882684e+02 -1.6708547990427097e-10 -5.8874637535657770e-11  1.9999999996867271e+02 -4.1402330383336108e-10 -7.1643304758570820e-11  1.9999999996875306e+02 -8.4181160700249513e-11 -5.5198535071900964e-11  1.9999999996883719e+02 -1.3165361864487663e-12 -8.0593129664309700e-11  1.9999999996815387e+02 5.4582106710377483e-10 3.1229023126564085e-11  1.9999999996799716e+02 -9.4942432891118564e-11 -4.4013375131396086e-12  1.9999999996816697e+02 7.5510451990385598e-11 3.5443992319807554e-11  1.9999999996881223e+02 6.3401934494938725e-11 -1.1885178638323192e-10  1.9999999996874706e+02 -2.4023405782550228e-10 -8.2401479371093205e-13  1.9999999997406076e+02 -1.0335247777930026e-10 -1.5831121104335993e-10  1.9999999997494294e+02 -7.7404735677632289e-11 -1.1165032505318147e-10  1.9999999997420511e+02 3.8841649330937400e-12 -5.1666040455385606e-11  1.9999999997430913e+02 9.3152190063035952e-11 4.6700360505627105e-11  1.9999999997423458e+02 -3.6604150379127881e-11 -3.1730020369303775e-11  1.9999999997490750e+02 -8.7949887353309322e-11 -2.1666970522972488e-10  1.9999999997334371e+02 -7.1770849638107358e-11 -9.8458812235375033e-11  1.9999999997251109e+02 -8.3115128945804424e-11 -1.6969663330696730e-10  1.9999999997266698e+02 -2.4620185510264732e-11 -6.8233255367832347e-11  1.9999999997274742e+02 8.5236712075520617e-11 6.7005451568064180e-11  1.9999999997264544e+02 -3.7066520848274929e-11 -3.3465296484322224e-11  1.9999999997331011e+02 -9.1639451956547815e-11 -1.7074380962216828e-10  1.9999999997332057e+02 -1.5650417892705272e-10 -1.2366585919633108e-10  1.9999999997339884e+02 -4.4340863887367506e-12 -2.3034832858876259e-11  1.9999999997180367e+02 -6.6764970736257602e-11 -1.1285640990513888e-10  1.9999999997096455e+02 -9.0858241866032106e-11 -1.0025364011859096e-10  1.9999999997111883e+02 2.3389559119841661e-12 -4.5693174293739432e-11  1.9999999997121611e+02 7.4722552633059548e-11 4.9568249847193492e-11  1.9999999997111917e+02 -6.0922835498033919e-12 -3.2283184442890685e-11  1.9999999997180839e+02 -9.5906931703930262e-11 -1.5099849899992285e-10  1.9999999997178054e+02 -1.8772324666831988e-10 -1.6335436242640846e-10  1.9999999997187652e+02 8.5514493291642626e-12 -1.9272430090917740e-11  1.9999999997026703e+02 -8.6462310767190082e-11 -9.2561829224283229e-11  1.9999999997019796e+02 -2.1075763892247239e-10 -1.0023836488331285e-10  1.9999999996948074e+02 -1.1183956633083296e-10 -8.3737937942684447e-11  1.9999999996951613e+02 -4.9841718217935301e-11 3.0320079300036586e-11  1.9999999996969868e+02 1.1445502042351560e-10 -4.5060720106264106e-11  1.9999999996961225e+02 -8.2410692516395549e-12 -6.0570531813868616e-12  1.9999999996969174e+02 8.7160432083694512e-11 6.8746409023044473e-11  1.9999999996961384e+02 -1.5400124627989246e-11 -4.7050950961251818e-11  1.9999999997024202e+02 -9.0363286817354633e-11 -1.5851107711895452e-10  1.9999999997021828e+02 -1.4320692198431801e-10 -7.4012953296162910e-11  1.9999999997029818e+02 -2.9730363685024551e-11 1.2625504644970684e-11  1.9999999997035991e+02 -1.4282079798480172e-11 -3.1646910390146588e-11  1.9999999996878125e+02 -6.8036753451665971e-11 -8.9903505389554320e-11  1.9999999996867635e+02 -2.0742044130671434e-10 -6.0233566616793543e-11  1.9999999996879328e+02 -2.3167672615950047e-12 1.2734261635002531e-10  1.9999999996817945e+02 4.7881723396761898e-11 -2.5922622514009245e-11  1.9999999996795705e+02 -1.0289892739723074e-10 -1.5085499616916105e-11  1.9999999996798232e+02 -3.3879699744145222e-11 2.7044351077564838e-11  1.9999999996816734e+02 9.9497893377861995e-11 -4.3866047307209702e-11  1.9999999996802808e+02 -2.6706664895453487e-11 -3.7028886509329683e-13  1.9999999996813477e+02 7.7283935385589358e-11 5.2630587444485676e-11  1.9999999996803774e+02 4.3522366816254407e-11 -1.5506753968261574e-11  1.9999999996793005e+02 -2.7642029050214292e-11 2.2340849769288816e-11  1.9999999996873692e+02 -8.6878674560321793e-11 -1.8291944533226499e-10  1.9999999996874394e+02 -1.9356443523342172e-10 -5.10988966