<?xml version="1.0"?>
<VTKFile type="UnstructuredGrid"  version="0.1"  >
<UnstructuredGrid>
<Piece  NumberOfPoints="3924" NumberOfCells="19102">
<Points>
<DataArray  type="Float64"  NumberOfComponents="3"  format="ascii">0 0 25  1.25 1.25 26.25  1.25 1.25 25  1.25 0 25  2.5 0 25  2.5 1.25 26.25  2.5 1.25 25  2.5 2.5 25  2.5 2.5 26.25  2.5 2.5 27.5  1.25 0 26.25  2.5 0 26.25  2.5 0 27.5  0 0 26.25  0 0 27.5  0 1.25 25  0 2.5 25  1.25 2.5 26.25  1.25 2.5 25  0 1.25 26.25  0 2.5 26.25  0 2.5 27.5  3.75 1.25 26.25  3.75 1.25 25  3.75 0 25  5 0 25  5 1.25 26.25  5 1.25 25  5 2.5 25  5 2.5 26.25  5 2.5 27.5  3.75 0 26.25  5 0 26.25  5 0 27.5  3.75 0 27.5  3.75 2.5 26.25  3.75 2.5 25  3.75 2.5 27.5  6.25 1.25 26.25  6.25 0 26.25  6.25 1.25 25  6.25 2.5 26.25  6.25 2.5 25  7.5 2.5 25  1.25 3.75 26.25  1.25 3.75 25  2.5 3.75 26.25  2.5 3.75 25  2.5 5 25  2.5 5 26.25  2.5 5 27.5  0 3.75 25  0 5 25  1.25 5 26.25  1.25 5 25  0 3.75 26.25  0 5 26.25  0 5 27.5  1.25 5 27.5  3.75 3.75 26.25  3.75 3.75 25  5 3.75 26.25  5 3.75 25  5 5 25  5 5 26.25  5 5 27.5  5 3.75 27.5  3.75 5 26.25  3.75 5 25  3.75 5 27.5  6.25 3.75 26.25  6.25 3.75 25  7.5 3.75 25  7.5 5 25  6.25 5 26.25  6.25 5 25  1.25 6.25 26.25  1.25 6.25 25  2.5 6.25 26.25  2.5 6.25 25  2.5 7.5 25  2.5 7.5 26.25  2.5 7.5 27.5  0 6.25 25  0 7.5 25  1.25 7.5 26.25  1.25 7.5 25  0 6.25 26.25  0 6.25 27.5  0 7.5 27.5  0 7.5 26.25  3.75 6.25 26.25  3.75 6.25 25  5 6.25 26.25  5 6.25 25  5 7.5 25  5 7.5 26.25  5 7.5 27.5  5 6.25 27.5  3.75 7.5 26.25  3.75 7.5 25  6.25 6.25 26.25  6.25 6.25 25  7.5 6.25 26.25  7.5 6.25 25  7.5 7.5 25  6.25 7.5 26.25  6.25 7.5 25  1.25 8.75 26.25  1.25 8.75 25  2.5 8.75 26.25  2.5 8.75 25  2.5 10 25  0 8.75 25  0 10 25  1.25 10 25  0 8.75 26.25  3.75 8.75 26.25  3.75 8.75 25  5 8.75 26.25  5 8.75 25  5 10 25  3.75 10 25  6.25 8.75 26.25  6.25 8.75 25  7.5 8.75 26.25  7.5 8.75 25  7.5 10 25  6.25 10 25  3.75 11.25 26.25  3.75 11.25 25  5 11.25 25  5 12.5 25  2.5 11.25 25  2.5 12.5 25  3.75 12.5 25  6.25 11.25 26.25  6.25 11.25 25  7.5 11.25 26.25  7.5 11.25 25  7.5 12.5 25  6.25 12.5 25  17.5 0 22.5  18.75 1.25 23.75  18.75 1.25 22.5  18.75 0 22.5  20 0 22.5  20 1.25 23.75  20 1.25 22.5  20 2.5 22.5  20 2.5 23.75  20 2.5 25  18.75 0 23.75  20 0 23.75  20 0 25  17.5 0 23.75  17.5 0 25  18.75 0 25  17.5 1.25 22.5  17.5 2.5 22.5  18.75 2.5 23.75  18.75 2.5 22.5  17.5 1.25 23.75  17.5 1.25 25  17.5 2.5 25  17.5 2.5 23.75  18.75 2.5 25  21.25 1.25 23.75  21.25 1.25 22.5  21.25 0 22.5  22.5 0 22.5  22.5 1.25 23.75  22.5 1.25 22.5  22.5 2.5 22.5  22.5 2.5 23.75  22.5 2.5 25  21.25 0 23.75  22.5 0 23.75  22.5 0 25  22.5 1.25 25  21.25 2.5 23.75  21.25 2.5 22.5  23.75 1.25 23.75  23.75 0 23.75  23.75 1.25 25  23.75 0 25  18.75 3.75 23.75  20 3.75 23.75  17.5 3.75 23.75  21.25 3.75 23.75  21.25 3.75 22.5  22.5 3.75 22.5  22.5 5 22.5  6.25 0 25  7.5 0 25  7.5 1.25 26.25  7.5 1.25 25  7.5 0 26.25  8.75 1.25 26.25  8.75 1.25 25  8.75 0 25  10 0 25  10 1.25 26.25  10 1.25 25  10 2.5 25  10 2.5 26.25  10 2.5 27.5  8.75 0 26.25  10 0 26.25  10 0 27.5  10 1.25 27.5  8.75 2.5 26.25  8.75 2.5 25  11.25 1.25 26.25  11.25 1.25 25  11.25 0 25  12.5 0 25  12.5 1.25 26.25  12.5 1.25 25  12.5 2.5 25  11.25 0 26.25  12.5 0 26.25  12.5 0 27.5  11.25 0 27.5  11.25 2.5 26.25  11.25 2.5 25  13.75 1.25 26.25  13.75 1.25 25  13.75 0 25  15 0 25  15 1.25 26.25  15 1.25 25  15 2.5 25  13.75 0 26.25  15 0 26.25  15 0 27.5  13.75 0 27.5  13.75 2.5 25  16.25 1.25 26.25  16.25 1.25 25  16.25 0 25  16.25 0 26.25  16.25 2.5 25  23.75 1.25 26.25  23.75 0 26.25  8.75 3.75 26.25  8.75 3.75 25  10 3.75 26.25  10 3.75 25  10 5 25  8.75 5 26.25  8.75 5 25  11.25 3.75 26.25  11.25 3.75 25  12.5 3.75 25  12.5 5 25  11.25 5 25  8.75 6.25 26.25  8.75 6.25 25  10 6.25 25  10 7.5 25  8.75 7.5 25  8.75 8.75 26.25  8.75 8.75 25  10 8.75 26.25  10 8.75 25  10 10 25  8.75 10 26.25  8.75 10 25  11.25 8.75 26.25  11.25 8.75 25  11.25 7.5 25  12.5 7.5 25  11.25 10 25  12.5 10 25  8.75 11.25 26.25  8.75 11.25 25  10 11.25 25  10 12.5 25  8.75 12.5 25  0 0 0  1.25 1.25 1.25  1.25 1.25 0  1.25 0 0  2.5 0 0  2.5 1.25 1.25  2.5 1.25 0  2.5 2.5 0  2.5 2.5 1.25  2.5 2.5 2.5  1.25 0 1.25  2.5 0 1.25  2.5 0 2.5  2.5 1.25 2.5  0 0 1.25  0 0 2.5  1.25 1.25 2.5  1.25 0 2.5  0 1.25 0  0 2.5 0  1.25 2.5 1.25  1.25 2.5 0  0 1.25 1.25  0 1.25 2.5  0 2.5 2.5  1.25 2.5 2.5  0 2.5 1.25  3.75 1.25 1.25  3.75 1.25 0  3.75 0 0  5 0 0  5 1.25 1.25  5 1.25 0  5 2.5 0  5 2.5 1.25  5 2.5 2.5  3.75 0 1.25  5 0 1.25  5 0 2.5  5 1.25 2.5  3.75 1.25 2.5  3.75 0 2.5  3.75 2.5 1.25  3.75 2.5 0  3.75 2.5 2.5  6.25 1.25 1.25  6.25 1.25 0  6.25 0 0  7.5 0 0  7.5 1.25 1.25  7.5 1.25 0  7.5 2.5 0  7.5 2.5 1.25  7.5 2.5 2.5  6.25 0 1.25  7.5 0 1.25  7.5 0 2.5  7.5 1.25 2.5  6.25 1.25 2.5  6.25 0 2.5  6.25 2.5 1.25  6.25 2.5 0  6.25 2.5 2.5  8.75 1.25 1.25  8.75 1.25 0  8.75 0 0  10 0 0  10 1.25 1.25  10 1.25 0  10 2.5 0  10 2.5 1.25  10 2.5 2.5  8.75 0 1.25  10 0 1.25  10 0 2.5  10 1.25 2.5  8.75 1.25 2.5  8.75 0 2.5  8.75 2.5 1.25  8.75 2.5 0  8.75 2.5 2.5  1.25 3.75 1.25  1.25 3.75 0  2.5 3.75 1.25  2.5 3.75 0  2.5 5 0  2.5 5 1.25  2.5 5 2.5  2.5 3.75 2.5  1.25 3.75 2.5  0 3.75 0  0 5 0  1.25 5 1.25  1.25 5 0  0 3.75 1.25  0 3.75 2.5  0 5 2.5  1.25 5 2.5  0 5 1.25  3.75 3.75 1.25  3.75 3.75 0  5 3.75 1.25  5 3.75 0  5 5 0  5 5 1.25  5 5 2.5  5 3.75 2.5  3.75 3.75 2.5  3.75 5 1.25  3.75 5 0  3.75 5 2.5  6.25 3.75 1.25  6.25 3.75 0  7.5 3.75 1.25  7.5 3.75 0  7.5 5 0  7.5 5 1.25  7.5 5 2.5  7.5 3.75 2.5  6.25 3.75 2.5  6.25 5 1.25  6.25 5 0  6.25 5 2.5  8.75 3.75 1.25  8.75 3.75 0  10 3.75 1.25  10 3.75 0  10 5 0  10 5 1.25  10 5 2.5  10 3.75 2.5  8.75 3.75 2.5  8.75 5 1.25  8.75 5 0  8.75 5 2.5  1.25 6.25 1.25  1.25 6.25 0  2.5 6.25 1.25  2.5 6.25 0  2.5 7.5 0  2.5 7.5 1.25  2.5 7.5 2.5  2.5 6.25 2.5  1.25 6.25 2.5  0 6.25 0  0 7.5 0  1.25 7.5 1.25  1.25 7.5 0  0 6.25 1.25  0 6.25 2.5  0 7.5 2.5  1.25 7.5 2.5  0 7.5 1.25  3.75 6.25 1.25  3.75 6.25 0  5 6.25 1.25  5 6.25 0  5 7.5 0  5 7.5 1.25  5 7.5 2.5  5 6.25 2.5  3.75 6.25 2.5  3.75 7.5 1.25  3.75 7.5 0  3.75 7.5 2.5  6.25 6.25 1.25  6.25 6.25 0  7.5 6.25 1.25  7.5 6.25 0  7.5 7.5 0  7.5 7.5 1.25  7.5 7.5 2.5  7.5 6.25 2.5  6.25 6.25 2.5  6.25 7.5 1.25  6.25 7.5 0  6.25 7.5 2.5  8.75 6.25 1.25  8.75 6.25 0  10 6.25 1.25  10 6.25 0  10 7.5 0  10 7.5 1.25  10 7.5 2.5  10 6.25 2.5  8.75 6.25 2.5  8.75 7.5 1.25  8.75 7.5 0  8.75 7.5 2.5  1.25 8.75 1.25  1.25 8.75 0  2.5 8.75 1.25  2.5 8.75 0  2.5 10 0  2.5 10 1.25  2.5 10 2.5  2.5 8.75 2.5  1.25 8.75 2.5  0 8.75 0  0 10 0  1.25 10 1.25  1.25 10 0  0 8.75 1.25  0 8.75 2.5  0 10 2.5  1.25 10 2.5  0 10 1.25  3.75 8.75 1.25  3.75 8.75 0  5 8.75 1.25  5 8.75 0  5 10 0  5 10 1.25  5 10 2.5  5 8.75 2.5  3.75 8.75 2.5  3.75 10 1.25  3.75 10 0  3.75 10 2.5  6.25 8.75 1.25  6.25 8.75 0  7.5 8.75 1.25  7.5 8.75 0  7.5 10 0  7.5 10 1.25  7.5 10 2.5  7.5 8.75 2.5  6.25 8.75 2.5  6.25 10 1.25  6.25 10 0  6.25 10 2.5  8.75 8.75 1.25  8.75 8.75 0  10 8.75 1.25  10 8.75 0  10 10 0  10 10 1.25  10 10 2.5  10 8.75 2.5  8.75 8.75 2.5  8.75 10 1.25  8.75 10 0  8.75 10 2.5  1.25 11.25 1.25  1.25 11.25 0  2.5 11.25 1.25  2.5 11.25 0  2.5 12.5 0  2.5 12.5 1.25  2.5 12.5 2.5  2.5 11.25 2.5  1.25 11.25 2.5  0 11.25 1.25  0 11.25 2.5  3.75 11.25 1.25  3.75 11.25 0  5 11.25 1.25  5 11.25 0  5 11.25 2.5  3.75 11.25 2.5  6.25 11.25 1.25  6.25 11.25 0  7.5 11.25 1.25  7.5 11.25 0  7.5 11.25 2.5  6.25 11.25 2.5  8.75 11.25 1.25  8.75 11.25 0  8.75 11.25 2.5  1.25 1.25 3.75  2.5 1.25 3.75  2.5 2.5 3.75  2.5 2.5 5  1.25 0 3.75  2.5 0 3.75  2.5 0 5  2.5 1.25 5  0 0 3.75  0 0 5  1.25 1.25 5  1.25 0 5  1.25 2.5 3.75  0 1.25 3.75  0 1.25 5  0 2.5 5  1.25 2.5 5  0 2.5 3.75  3.75 1.25 3.75  5 1.25 3.75  5 2.5 3.75  5 2.5 5  3.75 0 3.75  5 0 3.75  5 0 5  5 1.25 5  3.75 1.25 5  3.75 0 5  3.75 2.5 3.75  3.75 2.5 5  6.25 1.25 3.75  7.5 1.25 3.75  7.5 2.5 3.75  7.5 2.5 5  6.25 0 3.75  7.5 0 3.75  7.5 0 5  7.5 1.25 5  6.25 1.25 5  6.25 0 5  6.25 2.5 3.75  6.25 2.5 5  8.75 1.25 3.75  10 1.25 3.75  10 2.5 3.75  10 2.5 5  8.75 0 3.75  10 0 3.75  10 0 5  10 1.25 5  8.75 1.25 5  8.75 0 5  8.75 2.5 3.75  8.75 2.5 5  1.25 3.75 3.75  2.5 3.75 3.75  2.5 5 3.75  2.5 5 5  2.5 3.75 5  1.25 3.75 5  1.25 5 3.75  0 3.75 3.75  0 3.75 5  0 5 5  1.25 5 5  0 5 3.75  3.75 3.75 3.75  5 3.75 3.75  5 5 3.75  5 5 5  5 3.75 5  3.75 3.75 5  3.75 5 3.75  3.75 5 5  6.25 3.75 3.75  7.5 3.75 3.75  7.5 5 3.75  7.5 5 5  7.5 3.75 5  6.25 3.75 5  6.25 5 3.75  6.25 5 5  8.75 3.75 3.75  10 3.75 3.75  10 5 3.75  10 5 5  10 3.75 5  8.75 3.75 5  8.75 5 3.75  8.75 5 5  1.25 6.25 3.75  2.5 6.25 3.75  2.5 7.5 3.75  2.5 7.5 5  2.5 6.25 5  1.25 6.25 5  1.25 7.5 3.75  0 6.25 3.75  0 6.25 5  0 7.5 5  1.25 7.5 5  0 7.5 3.75  3.75 6.25 3.75  5 6.25 3.75  5 7.5 3.75  5 7.5 5  5 6.25 5  3.75 6.25 5  3.75 7.5 3.75  3.75 7.5 5  6.25 6.25 3.75  7.5 6.25 3.75  7.5 7.5 3.75  7.5 7.5 5  7.5 6.25 5  6.25 6.25 5  6.25 7.5 3.75  6.25 7.5 5  8.75 6.25 3.75  10 6.25 3.75  10 7.5 3.75  10 7.5 5  10 6.25 5  8.75 6.25 5  8.75 7.5 3.75  8.75 7.5 5  1.25 8.75 3.75  2.5 8.75 3.75  2.5 10 3.75  2.5 10 5  2.5 8.75 5  1.25 8.75 5  1.25 10 3.75  0 8.75 3.75  0 8.75 5  0 10 5  1.25 10 5  0 10 3.75  3.75 8.75 3.75  5 8.75 3.75  5 10 3.75  5 10 5  5 8.75 5  3.75 8.75 5  3.75 10 3.75  3.75 10 5  6.25 8.75 3.75  7.5 8.75 3.75  7.5 10 3.75  7.5 10 5  7.5 8.75 5  6.25 8.75 5  6.25 10 3.75  6.25 10 5  8.75 8.75 3.75  10 8.75 3.75  10 10 3.75  10 10 5  10 8.75 5  8.75 8.75 5  8.75 10 3.75  8.75 10 5  1.25 11.25 3.75  2.5 11.25 3.75  2.5 12.5 3.75  2.5 12.5 5  2.5 11.25 5  1.25 11.25 5  0 11.25 3.75  0 11.25 5  0 12.5 5  1.25 12.5 5  3.75 11.25 3.75  5 11.25 3.75  5 11.25 5  3.75 11.25 5  6.25 11.25 3.75  7.5 11.25 3.75  7.5 11.25 5  6.25 11.25 5  8.75 11.25 3.75  8.75 11.25 5  1.25 1.25 6.25  2.5 1.25 6.25  2.5 2.5 6.25  2.5 2.5 7.5  1.25 0 6.25  2.5 0 6.25  2.5 0 7.5  2.5 1.25 7.5  0 0 6.25  0 0 7.5  1.25 1.25 7.5  1.25 0 7.5  1.25 2.5 6.25  0 1.25 6.25  0 1.25 7.5  0 2.5 7.5  1.25 2.5 7.5  0 2.5 6.25  3.75 1.25 6.25  5 1.25 6.25  5 2.5 6.25  5 2.5 7.5  3.75 
[...]
<PointData  Vectors="u"> 
<DataArray  type="Float64"  Name="u"  NumberOfComponents="3" format="ascii">2.0000000000054442e+02 6.8618880342701798e-10 -1.4060277654628482e-10  1.9999999999899021e+02 -5.7636641755122241e-11 -9.2037510468470014e-11  1.9999999999898463e+02 -2.9900937878996904e-10 -1.6938291496200930e-10  1.9999999999902059e+02 -1.7675145901081449e-10 -1.8019090485563281e-10  1.9999999999831289e+02 7.0500924637653202e-10 -1.2483912762395862e-10  1.9999999999796012e+02 -6.4673756474987107e-11 -1.6332104778796421e-10  1.9999999999811530e+02 -1.0867428990396858e-10 -3.3223172181805493e-12  1.9999999999824874e+02 1.6886939843233472e-10 -1.3113347713508211e-11  1.9999999999822816e+02 -6.0143958721559868e-11 -4.0698109519894240e-11  1.9999999999821591e+02 1.2417403517087008e-10 1.1949536644519484e-10  1.9999999999897238e+02 -3.2446969650080709e-10 1.8707956843413688e-11  1.9999999999815239e+02 1.8981716405965521e-11 -3.0978984459389223e-11  1.9999999999826164e+02 5.1642962956446009e-10 1.3071919175497066e-10  2.0000000000004792e+02 -3.7633240979809633e-11 -8.0645295787040141e-11  2.0000000000057710e+02 6.3253296521424729e-10 1.4015962396548046e-10  1.9999999999998693e+02 -1.2747885736899270e-10 7.5024209873316155e-11  2.0000000000055857e+02 2.1822797355001192e-10 -8.6144935781452826e-11  1.9999999999908815e+02 -6.8890568639184831e-11 -1.2563939371944675e-10  1.9999999999903650e+02 2.4358811784555562e-11 4.6849459051609695e-11  1.9999999999975151e+02 -1.0920871899403748e-10 -2.6735935972582271e-11  2.0000000000005167e+02 -1.1719414812677432e-12 -1.2528974338698803e-11  2.0000000000058779e+02 1.8911525554405961e-10 1.5612439856441446e-10  1.9999999999716113e+02 -1.3886484687664068e-10 -1.1507992170927831e-10  1.9999999999701916e+02 -3.2245676749470063e-10 -1.1386177424488790e-10  1.9999999999715521e+02 -8.8492446309862969e-11 -4.3746579771133407e-11  1.9999999999647846e+02 7.0251777806377078e-10 -1.1080090562148138e-10  1.9999999999610219e+02 -8.9435636753708354e-11 -1.0457491182855058e-10  1.9999999999627121e+02 -7.6259873531694625e-11 -7.6462275019971890e-11  1.9999999999651141e+02 1.5008928777945199e-10 -8.1218050842023894e-11  1.9999999999634997e+02 5.6624905106948141e-11 2.3765662608277212e-12  1.9999999999647775e+02 1.4245740459542119e-10 1.2232172590565348e-10  1.9999999999717238e+02 -4.1463221568034870e-10 1.4928571067747113e-11  1.9999999999620334e+02 1.4117801276257782e-10 -2.5994129241810860e-11  1.9999999999646957e+02 5.8804824713584123e-10 1.1011701496454069e-10  1.9999999999719128e+02 1.6933400815246899e-11 -7.9676609427434612e-11  1.9999999999711810e+02 -1.5553536432784231e-10 -8.8393745074430592e-11  1.9999999999721101e+02 -7.9754622882735835e-11 6.0646446484740010e-11  1.9999999999726305e+02 7.3704664708158608e-11 -1.1324432558233894e-10  1.9999999999537806e+02 -1.4160545395391349e-10 -3.0543939844570538e-11  1.9999999999522228e+02 -5.4586939906419332e-10 -1.0911617725458867e-11  1.9999999999532892e+02 -1.2462392869114680e-10 1.3055551372793052e-10  1.9999999999532477e+02 -1.9592021260768736e-10 4.9632480042180031e-11  1.9999999999538500e+02 -5.0930830431725756e-11 9.6605351162840870e-11  1.9999999999469804e+02 1.3289292008216206e-10 -5.7145172507374444e-11  1.9999999999902883e+02 -4.9648065310578033e-11 -3.1433721657700886e-11  1.9999999999914900e+02 -2.1373248455673146e-10 -1.3682049533598635e-10  1.9999999999809762e+02 -2.1775843509352100e-10 -2.4885845336765894e-10  1.9999999999815890e+02 -4.6337193810741367e-11 3.6865694462672457e-11  1.9999999999819744e+02 2.0080688124288668e-10 -1.8034953991968084e-11  1.9999999999818806e+02 -5.8012823702421869e-11 -3.4417096474777442e-12  1.9999999999817382e+02 1.7851288865787202e-10 1.2923587711616010e-10  2.0000000000005795e+02 -3.3389940157838157e-11 1.1359162428862494e-10  2.0000000000057432e+02 1.5457788241966318e-10 -6.1531777743161233e-11  1.9999999999904992e+02 -1.0069336079959678e-10 -1.0231156041403157e-10  1.9999999999901030e+02 -3.0389493493120927e-11 4.7366276626270186e-11  1.9999999999963714e+02 -5.7328767483179715e-11 -3.4295896039295153e-11  2.0000000000006037e+02 -4.0808024206430912e-11 -3.8261059311706472e-13  2.0000000000058006e+02 1.7587439339964914e-10 1.1445054461192689e-10  1.9999999999905714e+02 -5.8044155189129821e-11 -7.2678055728464520e-13  1.9999999999719810e+02 -6.7370146077175928e-11 -7.6798292308131840e-11  1.9999999999707711e+02 -2.3054389821333203e-10 -9.4187757078214416e-11  1.9999999999625064e+02 -7.1386879091215067e-11 -6.8856372475765952e-11  1.9999999999629807e+02 -2.9124324497484050e-11 5.1413891283803830e-11  1.9999999999651388e+02 1.8128360957231435e-10 -2.7581647414794488e-11  1.9999999999638803e+02 3.4812869294716939e-11 -4.3983657403277173e-12  1.9999999999648693e+02 1.3520953759638554e-10 8.8639101723240775e-11  1.9999999999633943e+02 1.0202604196795217e-11 -4.3740690884038520e-11  1.9999999999717292e+02 -8.2728566942287959e-11 -9.5834847045525649e-11  1.9999999999726467e+02 -2.3737914040078110e-11 4.7871366714418672e-11  1.9999999999725992e+02 3.3238253086164909e-11 -2.6039261693163845e-11  1.9999999999537502e+02 -2.5542548678007185e-11 -1.1389977276044384e-10  1.9999999999524903e+02 -1.9992301779703187e-10 -2.7973814605172211e-11  1.9999999999442591e+02 -9.9512634923057688e-12 1.0143952818189843e-10  1.9999999999467107e+02 1.8845700150830505e-10 -3.4862922947243582e-12  1.9999999999534103e+02 -1.9696747526330032e-10 -8.0832012155512287e-11  1.9999999999541598e+02 -3.6888461258002401e-11 9.2764280906876130e-11  1.9999999999898938e+02 -4.6703147438308407e-11 -3.5047396914824677e-11  1.9999999999914399e+02 -1.7402691566689250e-10 -1.2660119838903327e-10  1.9999999999813801e+02 -1.9670554211588134e-10 -1.8735306873857739e-10  1.9999999999819153e+02 -5.1043420471875206e-11 -3.9765055251846954e-11  1.9999999999820619e+02 2.0431585682864706e-10 -2.0946209239451166e-11  1.9999999999817578e+02 9.0536153781863136e-12 4.3372263089340122e-12  1.9999999999819511e+02 1.8357275843825024e-10 1.2233234727673588e-10  2.0000000000003627e+02 1.7988802742922229e-11 1.2677693362244864e-10  2.0000000000058674e+02 1.4091084589442204e-10 -6.5421385397251702e-11  1.9999999999903025e+02 -1.0872115846416511e-10 -1.3163638943494219e-10  1.9999999999897926e+02 -1.5130582306441392e-11 7.5752839191595310e-11  1.9999999999961540e+02 -1.8225255778487487e-11 7.5608086615847057e-12  2.0000000000002527e+02 -5.4627352699728371e-11 -1.1305317867072112e-10  2.0000000000055942e+02 1.8508087133868914e-10 1.0539303467815123e-10  2.0000000000006901e+02 -6.8594146411853597e-11 -5.7988964716515485e-12  1.9999999999723397e+02 -3.4359998786801594e-11 -8.5256140841419641e-11  1.9999999999710406e+02 -1.5549453326911178e-10 -5.0510638250015969e-11  1.9999999999616296e+02 -1.0267653751770285e-10 -9.1588462627012929e-11  1.9999999999627397e+02 -2.0282461004458990e-11 8.5649644577930490e-11  1.9999999999643012e+02 1.1322183480706667e-10 -3.0493499751516631e-11  1.9999999999630643e+02 -1.7548629505023934e-11 2.6819810412809594e-11  1.9999999999645181e+02 1.2258812687424619e-10 1.0115398067795509e-10  1.9999999999633241e+02 3.0615147386692444e-11 -2.8814825980457744e-11  1.9999999999717093e+02 -1.4131994066689250e-10 -1.0175906124098285e-10  1.9999999999725301e+02 -7.5091506283552499e-11 5.1522050971973126e-11  1.9999999999536237e+02 -9.8532951598838062e-11 -9.9814587165787823e-11  1.9999999999524053e+02 -2.2693372068319942e-10 -5.4720540853252998e-11  1.9999999999442437e+02 -1.1485335985222289e-10 -1.0167761059632193e-10  1.9999999999445490e+02 -8.7340606060842617e-11 7.6543897477470049e-11  1.9999999999469856e+02 1.7046610646420383e-10 -8.0488913482840738e-13  1.9999999999533222e+02 -1.1387621865823165e-10 -5.3636052974549751e-11  1.9999999999543405e+02 -6.0088218397318554e-11 8.0081323449626266e-11  1.9999999999904671e+02 -8.2215073498096041e-11 -3.6953533070048307e-12  1.9999999999912927e+02 -2.2692359311597034e-10 -9.5958234979454016e-11  1.9999999999807670e+02 -2.4200855060396285e-10 -2.1382599694882496e-10  1.9999999999818078e+02 -9.5019367358812883e-12 -1.4288648559239656e-11  1.9999999999820974e+02 2.1112245293492490e-10 -4.2776493726759127e-11  2.0000000000003570e+02 -6.3918958712879833e-12 9.3148753871791465e-11  2.0000000000060695e+02 1.6029989955329633e-10 -8.0646787937030005e-11  1.9999999999904048e+02 -1.6931457378111917e-11 4.1093520692622651e-11  1.9999999999965496e+02 -4.7831603742150070e-11 3.5799635285408361e-11  1.9999999999718781e+02 -6.3385242556050990e-11 -9.6657592079852486e-11  1.9999999999704423e+02 -1.8840849259153997e-10 -4.2102477727498877e-11  1.9999999999614721e+02 -8.8765568629878631e-11 -7.0555745692210850e-11  1.9999999999627011e+02 3.4531173636010663e-11 4.0060883306355162e-11  1.9999999999648529e+02 1.7402427687860917e-10 -4.3465818502837618e-12  1.9999999999721464e+02 -4.5661541182020110e-11 4.8262450512205973e-11  1.9999999999539816e+02 -4.4373339866650569e-11 -7.9654043429713354e-11  1.9999999999527068e+02 -1.3938767371929102e-10 -5.5436591819737714e-11  1.9999999999442883e+02 -9.5752843052185596e-11 -8.7778319274829594e-11  1.9999999999447431e+02 -2.0562969480399755e-11 9.3502284416364502e-11  1.9999999999465135e+02 1.2142281679950770e-10 8.2671196063902148e-12  1.9999999999538190e+02 -4.6684504757291046e-11 1.2903069717771355e-10  1.9999999999720865e+02 -4.7348946095172056e-11 -1.0672064646800353e-10  1.9999999999703951e+02 -2.1530408317288967e-10 -6.5181495241952557e-11  1.9999999999626073e+02 -3.2343019751014959e-11 8.9280736894383376e-11  1.9999999999645496e+02 1.2970734300524581e-10 -7.7048042762038581e-12  1.9999999999818542e+02 -5.2734243713199494e-11 -4.7094471063493212e-11  1.9999999999823012e+02 1.7032356016811373e-10 6.4340501629626473e-12  1.9999999999720816e+02 -5.3376758303567417e-11 4.7416099959108191e-11  1.9999999999535433e+02 -9.2000660462883626e-11 -9.3382565136997348e-11  1.9999999999519790e+02 -2.7304786262116412e-10 -1.8246558588223490e-11  1.9999999999438967e+02 -1.1656576953262103e-10 -1.3656165970088986e-10  1.9999999999448542e+02 1.8036207116608625e-11 1.3182178845592659e-10  1.9999999999470427e+02 1.5181793257969207e-10 3.5539834080891363e-15  1.9999999999536618e+02 -4.0539707747818905e-12 1.1302040950790941e-10  1.9999999998740074e+02 6.5458977352786857e-10 5.8372889124375198e-12  1.9999999998652945e+02 -6.4454047910373577e-11 -1.1291533291372196e-10  1.9999999998657768e+02 -2.2987033766323430e-10 -1.0568553600856599e-10  1.9999999998655082e+02 -1.4433667037547883e-10 -3.2016293448049677e-11  1.9999999998583095e+02 7.0729194131890723e-10 -2.2421485597649857e-11  1.9999999998551274e+02 -7.4733365330688179e-11 -1.0140253518239714e-10  1.9999999998563879e+02 -8.2320776841372462e-11 8.0825485883683289e-12  1.9999999998578662e+02 1.3908907628540036e-10 -3.1792663405614960e-11  1.9999999998575277e+02 -8.9372619279092681e-11 1.1271814731804557e-11  1.9999999998575140e+02 1.4912165350100809e-10 1.1566514955638039e-10  1.9999999998659445e+02 -2.5847870371498204e-10 3.0460758324822151e-11  1.9999999998566398e+02 6.4119949236442932e-11 -3.1319580728650585e-11  1.9999999998580657e+02 5.6366281028566290e-10 1.5489848241869281e-10  1.9999999998756979e+02 6.7967102892167380e-12 -2.3518023893887232e-11  1.9999999998740694e+02 6.3358924046845813e-10 1.1901002418699147e-10  1.9999999998657771e+02 3.7567311195017392e-11 2.9240173964492798e-11  1.9999999998759287e+02 -4.2663194871205246e-11 7.6820240214717730e-11  1.9999999998746731e+02 9.2460193630837208e-11 5.8600173810086434e-11  1.9999999998667653e+02 -1.1441495858492876e-10 -1.1959406484893796e-10  1.9999999998658134e+02 -3.4909747930212157e-11 5.2819141587455360e-11  1.9999999998756027e+02 -1.9558122153808180e-10 -1.0994966106304456e-10  1.9999999998751963e+02 -7.1233194368952310e-11 -1.3848808005860309e-10  1.9999999998739605e+02 1.6480866243204149e-10 8.4289857610149502e-11  1.9999999998749223e+02 -6.4855022084013082e-11 -7.1916620917026744e-11  1.9999999998665299e+02 -1.4246827039961549e-11 -4.2113992726239537e-11  1.9999999998480763e+02 -1.4892941781227716e-10 -5.0518579409533481e-11  1.9999999998466637e+02 -2.7053425600402012e-10 -1.1445459170266664e-10  1.9999999998480789e+02 -3.7062999975823642e-11 -1.7506137108624401e-11  1.9999999998414833e+02 6.3822571367682464e-10 -2.9066975476632695e-11  1.9999999998378894e+02 -1.0832789686502974e-10 -6.3526069063594109e-11  1.9999999998398101e+02 -6.9672539401021984e-11 -2.5276353214714697e-12  1.9999999998415527e+02 1.4754657640279543e-10 -2.3460722402640867e-11  1.9999999998401393e+02 3.0365837272797318e-11 -1.1649509498313409e-11  1.9999999998414759e+02 1.0945446743245973e-10 1.4760682440605869e-10  1.9999999998483989e+02 -3.5627364280879045e-10 9.9010563850939525e-11  1.9999999998387563e+02 1.6234441490566969e-10 5.1317568328336861e-11  1.9999999998410280e+02 5.4434861748938198e-10 1.2243335886513571e-10  1.9999999998405039e+02 -5.6726454024720864e-11 8.5059327459577187e-11  1.9999999998475352e+02 -1.6345548608564960e-10 -8.2745290754573562e-11  1.9999999998483699e+02 -8.5601859029740207e-11 6.3450747034852282e-11  1.9999999998317548e+02 -1.4165743299247353e-10 -3.1948880104953028e-11  1.9999999998297255e+02 -4.7706161116195099e-10 -3.5943062332274555e-12  1.9999999998306876e+02 -9.0016645706627011e-11 -3.6425108786716401e-11  1.9999999998310051e+02 -1.9095030115922937e-11 -4.6243613883904134e-11  1.9999999998659780e+02 -3.5440821615813921e-11 2.8657880876296819e-11  1.9999999998574427e+02 -1.9515427228788153e-10 2.5087423671145892e-11  1.9999999998762456e+02 -9.4034866850166568e-11 -2.2103151898297669e-11  1.9999999998480780e+02 -1.3511611316255781e-11 -7.8620766611326072e-11  1.9999999998486632e+02 -1.5586144050158857e-10 -2.5673883614031342e-11  1.9999999998394381e+02 5.2338332826476761e-12 3.4726622857304425e-11  1.9999999998409868e+02 1.4239091027121340e-10 4.8927011196152872e-14  1.9999999999538915e+02 -4.9453693227297632e-13 2.7427810547906855e-11  1.9999999999469404e+02 7.0807335332322039e-10 -7.4444307851788229e-11  1.9999999999455628e+02 1.3750057229637839e-11 -6.1348808027208489e-12  1.9999999999450156e+02 -7.6411192748485571e-11 -3.2422269061554368e-11  1.9999999999456344e+02 3.0573273143682003e-11 -8.5322826670655854e-12  1.9999999999353685e+02 -1.0801822970584690e-10 -9.3642619908861653e-11  1.9999999999337479e+02 -2.7274528147039386e-10 -9.2685984346045723e-11  1.9999999999357308e+02 -8.6266489433886332e-11 -4.3178900934562387e-11  1.9999999999286919e+02 7.2180156251516585e-10 1.6000739903603881e-12  1.9999999999249556e+02 -1.0875672027019437e-10 -1.1990540524831518e-10  1.9999999999269787e+02 -1.1175334892917180e-10 2.0100451733639758e-11  1.9999999999286811e+02 1.7653649359090942e-10 -3.1253672118252573e-11  1.9999999999273982e+02 -3.2649657035044196e-12 -3.7476130867749328e-11  1.9999999999287499e+02 1.0261046491550377e-10 1.0373515062325433e-10  1.9999999999355015e+02 -3.9349883527345026e-10 1.5518618180164925e-11  1.9999999999270011e+02 6.4376658806412303e-11 -5.2790377443705126e-11  1.9999999999285197e+02 5.8783292810737679e-10 6.7165956904115005e-11  1.9999999999277316e+02 -2.7728975143719242e-11 1.8120656932518715e-11  1.9999999999347287e+02 -1.5313311217772237e-10 -1.2978808674508906e-10  1.9999999999362740e+02 -1.0281988858743909e-10 7.0518827384286161e-11  1.9999999999176075e+02 -1.4399552571476073e-10 -9.9751304267052477e-11  1.9999999999159135e+02 -2.9613174118564030e-10 -9.2654781219261009e-11  1.9999999999177672e+02 -2.8760860702148972e-11 -1.7971847031137150e-11  1.9999999999104256e+02 6.9803783524298635e-10 -1.5947849895838031e-11  1.9999999999074140e+02 -6.0105603503114346e-11 -7.6045868159120939e-11  1.9999999999087834e+02 -3.1527537003379521e-12 5.2000201764005063e-11  1.9999999999108499e+02 1.5560413579405772e-10 -1.0780166004865448e-11  1.9999999999175250e+02 -3.9188198118099298e-10 3.3637759063009273e-11  1.9999999999090139e+02 3.1693599912342171e-11 5.5192655315280724e-11  1.9999999999106936e+02 5.5941384867185040e-10 1.1722883275517375e-10  1.9999999999187042e+02 8.0233998327307599e-11 -9.1121146226688673e-11  1.9999999999173968e+02 -2.1374687200929649e-10 -1.0845464979948171e-10  1.9999999999178715e+02 -6.9018411375152740e-11 4.1149757419698353e-11  1.9999999999000215e+02 -1.3192849155190051e-10 -5.2753412923345423e-11  1.9999999998989188e+02 -2.6327440615744058e-10 -6.6113566876048112e-11  1.9999999999003012e+02 -4.8882730632495321e-11 4.3727056970782095e-11  1.9999999998927598e+02 7.1004538489400493e-10 3.0771972644654830e-11  1.9999999998899906e+02 -7.8838674211073234e-11 -1.2562899256357218e-10  1.9999999998925404e+02 -5.7498162274404031e-11 1.0012714148010340e-10  1.9999999998927865e+02 1.6657093793244259e-10 1.6880304831536108e-11  1.9999999999001005e+02 -3.5372751927721733e-10 3.7322400314073612e-11  1.9999999998914859e+02 5.1525435732062271e-11 1.3044077124177687e-11  1.9999999998933188e+02 5.6327898221525332e-10 1.3743014439275400e-10  1.9999999999002145e+02 4.3282119537160065e-11 -5.1558359880419653e-11  1.9999999999004845e+02 -5.1504078912636168e-11 4.5325296982925415e-11  1.9999999998832286e+02 -1.0403157244882624e-10 -7.5835319201372001e-11  1.9999999998852903e+02 -2.6800171552069845e-10 3.2479744585908489e-11  1.9999999998838359e+02 -1.9317821999435401e-11 8.0209134836430926e-11  1.9999999998830535e+02 -4.7282855869221877e-10 5.9540965454759877e-11  1.9999999998830469e+02 -5.6019682664969242e-11 4.8753629099187583e-11  1.9999999998306629e+02 -3.9241038356957867e-11 -6.0508378087875778e-11  1.9999999998311671e+02 -3.5020387165081129e-10 2.8403242824229989e-11  1.9999999999351942e+02 -1.8905360653111642e-11 -6.0433707418250053e-11  1.9999999999345383e+02 -1.8211306854121142e-10 -5.4554358560498175e-11  1.9999999999254183e+02 -1.2869589790028584e-10 -1.2747552793780774e-10  1.9999999999265191e+02 -3.0013233802757911e-11 2.0235891301667259e-11  1.9999999999280348e+02 1.1676248781028536e-10 -3.6036747012509655e-11  1.9999999999356595e+02 -8.9549752131356184e-12 -1.0312030524697755e-10  1.9999999999361492e+02 -5.4384171828443938e-12 9.1395510685877389e-11  1.9999999999176549e+02 -6.7326330184783906e-11 -1.1118537158621600e-10  1.9999999999162588e+02 -2.1098586634809923e-10 -1.3653542573802418e-10  1.9999999999086367e+02 -1.4415035514058820e-11 6.2320744129362311e-11  1.9999999999106794e+02 1.5046613854105336e-10 -3.6100059353172316e-11  1.9999999999180622e+02 -7.5232307942384631e-11 1.7218956973591356e-11  1.9999999999358548e+02 -4.3837745987610513e-11 -2.0417967438244219e-11  1.9999999999357692e+02 -2.3773116037197533e-10 -5.1721562611848550e-12  1.9999999999279785e+02 -1.2441160090676642e-11 -5.3886781795705082e-11  1.9999999999279260e+02 1.3393381335640170e-10 -1.4205922348997572e-11  1.9999999999356112e+02 -6.1559631411996167e-11 1.2132341599312621e-10  1.9999999999358172e+02 -4.8223422597814460e-11 2.4362010969880685e-11  1.9999999999353230e+02 -1.8516868239097761e-10 1.3062750827828897e-11  1.9999999999264173e+02 -2.2468068406422142e-10 -1.7842022169041083e-10  1.9999999999279433e+02 -3.7813163784164558e-11 -1.7501507659924588e-11  1.9999999999275241e+02 1.6576890297748599e-10 1.2255552109599781e-11  1.9999999999359065e+02 -4.6842529312883040e-11 -8.3578331334108146e-11  1.9999999999362535e+02 -6.2096602620499042e-11 1.0279523107313519e-10  1.9999999999178760e+02 -5.1591939489984540e-11 -5.6315712940205110e-11  1.9999999999166658e+02 -1.9578612636190835e-10 -6.9812756931729473e-11  1.9999999999180741e+02 -1.1407486379336833e-10 7.3932257963241071e-11  1.9999999999112484e+02 1.3231250625576460e-10 -2.8904106218636428e-11  1.9999999999180991e+02 -7.6472318467985473e-11 7.5967692679860711e-11  1.9999999999111563e+02 1.3389153850734294e-10 4.3501180688399770e-13  1.9999999999362490e+02 -5.5589170478788590e-11 -1.6731397218519872e-11  1.9999999999359432e+02 -1.8032673094672002e-10 -5.7804228585200178e-12  1.9999999999274891e+02 2.8728949837976304e-12 -1.0732548355134605e-11  1.9999999999277642e+02 1.7459050043424324e-10 1.2530626083626472e-11  1.9999999999359