<?xml version="1.0"?>
<VTKFile type="UnstructuredGrid"  version="0.1"  >
<UnstructuredGrid>
<Piece  NumberOfPoints="4055" NumberOfCells="19818">
<Points>
<DataArray  type="Float64"  NumberOfComponents="3"  format="ascii">27.5 50 17.5  27.5 50 18.75  26.25 50 18.75  26.25 48.75 18.75  27.5 50 20  27.5 37.5 0  27.5 37.5 1.25  27.5 36.25 1.25  26.25 36.25 1.25  27.5 36.25 0  26.25 36.25 0  27.5 37.5 2.5  27.5 36.25 2.5  26.25 36.25 2.5  26.25 37.5 1.25  26.25 37.5 0  25 37.5 2.5  26.25 37.5 2.5  30 37.5 0  30 37.5 1.25  30 36.25 1.25  28.75 36.25 1.25  30 36.25 0  28.75 36.25 0  30 37.5 2.5  30 36.25 2.5  28.75 36.25 2.5  28.75 37.5 1.25  28.75 37.5 0  28.75 37.5 2.5  32.5 37.5 0  32.5 37.5 1.25  32.5 36.25 1.25  31.25 36.25 1.25  32.5 36.25 0  31.25 36.25 0  32.5 37.5 2.5  32.5 36.25 2.5  31.25 36.25 2.5  31.25 37.5 1.25  31.25 37.5 0  31.25 37.5 2.5  35 37.5 0  35 37.5 1.25  35 36.25 1.25  33.75 36.25 1.25  35 36.25 0  33.75 36.25 0  35 37.5 2.5  33.75 37.5 1.25  33.75 37.5 0  33.75 37.5 2.5  33.75 36.25 2.5  36.25 37.5 1.25  36.25 37.5 0  36.25 36.25 1.25  36.25 36.25 0  37.5 37.5 0  37.5 37.5 1.25  37.5 37.5 2.5  36.25 37.5 2.5  27.5 38.75 1.25  27.5 38.75 0  26.25 38.75 1.25  26.25 38.75 0  27.5 40 0  27.5 40 1.25  27.5 40 2.5  27.5 38.75 2.5  26.25 38.75 2.5  26.25 40 1.25  25 38.75 2.5  25 40 2.5  26.25 40 2.5  28.75 38.75 1.25  28.75 38.75 0  30 38.75 1.25  30 38.75 0  30 40 0  30 40 1.25  30 40 2.5  30 38.75 2.5  28.75 38.75 2.5  28.75 40 1.25  28.75 40 0  28.75 40 2.5  31.25 38.75 1.25  31.25 38.75 0  32.5 38.75 1.25  32.5 38.75 0  32.5 40 0  32.5 40 1.25  32.5 40 2.5  32.5 38.75 2.5  31.25 38.75 2.5  31.25 40 1.25  31.25 40 0  31.25 40 2.5  33.75 38.75 1.25  33.75 38.75 0  35 38.75 1.25  35 38.75 0  35 40 0  35 40 1.25  35 40 2.5  35 38.75 2.5  33.75 38.75 2.5  33.75 40 1.25  33.75 40 0  33.75 40 2.5  36.25 38.75 1.25  36.25 38.75 0  37.5 38.75 1.25  37.5 38.75 0  37.5 40 0  37.5 40 1.25  37.5 40 2.5  37.5 38.75 2.5  36.25 38.75 2.5  36.25 40 1.25  36.25 40 0  36.25 40 2.5  40 40 0  40 40 1.25  40 38.75 1.25  38.75 38.75 1.25  40 40 2.5  40 38.75 2.5  38.75 38.75 2.5  38.75 38.75 0  38.75 40 1.25  38.75 40 0  38.75 40 2.5  41.25 40 1.25  41.25 40 0  41.25 38.75 1.25  42.5 40 0  42.5 40 1.25  42.5 40 2.5  41.25 40 2.5  41.25 38.75 2.5  27.5 41.25 1.25  27.5 41.25 0  26.25 41.25 1.25  26.25 41.25 0  27.5 42.5 0  27.5 42.5 1.25  27.5 42.5 2.5  27.5 41.25 2.5  26.25 41.25 2.5  25 42.5 0  26.25 42.5 1.25  26.25 42.5 0  25 41.25 2.5  25 42.5 2.5  26.25 42.5 2.5  28.75 41.25 1.25  28.75 41.25 0  30 41.25 1.25  30 41.25 0  30 42.5 0  30 42.5 1.25  30 42.5 2.5  30 41.25 2.5  28.75 41.25 2.5  28.75 42.5 1.25  28.75 42.5 0  28.75 42.5 2.5  31.25 41.25 1.25  31.25 41.25 0  32.5 41.25 1.25  32.5 41.25 0  32.5 42.5 0  32.5 42.5 1.25  32.5 42.5 2.5  32.5 41.25 2.5  31.25 41.25 2.5  31.25 42.5 1.25  31.25 42.5 0  31.25 42.5 2.5  33.75 41.25 1.25  33.75 41.25 0  35 41.25 1.25  35 41.25 0  35 42.5 0  35 42.5 1.25  35 42.5 2.5  35 41.25 2.5  33.75 41.25 2.5  33.75 42.5 1.25  33.75 42.5 0  33.75 42.5 2.5  36.25 41.25 1.25  36.25 41.25 0  37.5 41.25 1.25  37.5 41.25 0  37.5 42.5 0  37.5 42.5 1.25  37.5 42.5 2.5  37.5 41.25 2.5  36.25 41.25 2.5  36.25 42.5 1.25  36.25 42.5 0  36.25 42.5 2.5  38.75 41.25 1.25  38.75 41.25 0  40 41.25 1.25  40 41.25 0  40 42.5 0  40 42.5 1.25  40 42.5 2.5  40 41.25 2.5  38.75 41.25 2.5  38.75 42.5 1.25  38.75 42.5 0  38.75 42.5 2.5  41.25 41.25 1.25  41.25 41.25 0  42.5 41.25 1.25  42.5 41.25 0  42.5 42.5 0  42.5 42.5 1.25  42.5 42.5 2.5  42.5 41.25 2.5  41.25 41.25 2.5  41.25 42.5 1.25  41.25 42.5 0  41.25 42.5 2.5  45 40 0  45 41.25 1.25  45 41.25 0  43.75 41.25 1.25  43.75 41.25 0  45 42.5 0  45 42.5 1.25  45 42.5 2.5  45 40 2.5  45 41.25 2.5  43.75 41.25 2.5  43.75 40 2.5  43.75 42.5 1.25  43.75 42.5 0  43.75 42.5 2.5  47.5 40 0  47.5 41.25 1.25  47.5 41.25 0  46.25 41.25 1.25  46.25 41.25 0  47.5 42.5 0  47.5 42.5 1.25  47.5 42.5 2.5  47.5 40 2.5  47.5 41.25 2.5  46.25 41.25 2.5  46.25 40 2.5  46.25 42.5 1.25  46.25 42.5 0  46.25 42.5 2.5  50 40 0  50 41.25 1.25  50 41.25 0  48.75 41.25 1.25  48.75 41.25 0  50 42.5 0  50 42.5 1.25  50 42.5 2.5  50 40 1.25  50 40 2.5  50 41.25 2.5  48.75 41.25 2.5  48.75 40 2.5  48.75 42.5 1.25  48.75 42.5 0  48.75 42.5 2.5  26.25 43.75 1.25  26.25 43.75 0  27.5 43.75 1.25  27.5 43.75 0  27.5 45 0  27.5 45 1.25  27.5 45 2.5  27.5 43.75 2.5  26.25 43.75 2.5  26.25 45 1.25  25 45 2.5  26.25 45 2.5  28.75 43.75 1.25  28.75 43.75 0  30 43.75 1.25  30 43.75 0  30 45 0  30 45 1.25  30 45 2.5  30 43.75 2.5  28.75 43.75 2.5  28.75 45 1.25  28.75 45 0  28.75 45 2.5  31.25 43.75 1.25  31.25 43.75 0  32.5 43.75 1.25  32.5 43.75 0  32.5 45 0  32.5 45 1.25  32.5 45 2.5  32.5 43.75 2.5  31.25 43.75 2.5  31.25 45 1.25  31.25 45 0  31.25 45 2.5  33.75 43.75 1.25  33.75 43.75 0  35 43.75 1.25  35 43.75 0  35 45 0  35 45 1.25  35 45 2.5  35 43.75 2.5  33.75 43.75 2.5  33.75 45 1.25  33.75 45 0  33.75 45 2.5  36.25 43.75 1.25  36.25 43.75 0  37.5 43.75 1.25  37.5 43.75 0  37.5 45 0  37.5 45 1.25  37.5 45 2.5  37.5 43.75 2.5  36.25 43.75 2.5  36.25 45 1.25  36.25 45 0  36.25 45 2.5  38.75 43.75 1.25  38.75 43.75 0  40 43.75 1.25  40 43.75 0  40 45 0  40 45 1.25  40 45 2.5  40 43.75 2.5  38.75 43.75 2.5  38.75 45 1.25  38.75 45 0  38.75 45 2.5  41.25 43.75 1.25  41.25 43.75 0  42.5 43.75 1.25  42.5 43.75 0  42.5 45 0  42.5 45 1.25  42.5 45 2.5  42.5 43.75 2.5  41.25 43.75 2.5  41.25 45 1.25  41.25 45 0  41.25 45 2.5  43.75 43.75 1.25  43.75 43.75 0  45 43.75 1.25  45 43.75 0  45 45 0  45 45 1.25  45 45 2.5  45 43.75 2.5  43.75 43.75 2.5  43.75 45 1.25  43.75 45 0  43.75 45 2.5  46.25 43.75 1.25  46.25 43.75 0  47.5 43.75 1.25  47.5 43.75 0  47.5 45 0  47.5 45 1.25  47.5 45 2.5  47.5 43.75 2.5  46.25 43.75 2.5  46.25 45 1.25  46.25 45 0  46.25 45 2.5  48.75 43.75 1.25  48.75 43.75 0  50 43.75 1.25  50 43.75 0  50 45 0  50 45 1.25  50 45 2.5  50 43.75 2.5  48.75 43.75 2.5  48.75 45 1.25  48.75 45 0  48.75 45 2.5  27.5 46.25 1.25  27.5 46.25 0  26.25 46.25 1.25  26.25 46.25 0  27.5 47.5 0  27.5 47.5 1.25  27.5 47.5 2.5  27.5 46.25 2.5  26.25 46.25 2.5  25 47.5 0  26.25 47.5 1.25  26.25 47.5 0  25 46.25 2.5  25 47.5 2.5  26.25 47.5 2.5  28.75 46.25 1.25  28.75 46.25 0  30 46.25 1.25  30 46.25 0  30 47.5 0  30 47.5 1.25  30 47.5 2.5  30 46.25 2.5  28.75 46.25 2.5  28.75 47.5 1.25  28.75 47.5 0  28.75 47.5 2.5  31.25 46.25 1.25  31.25 46.25 0  32.5 46.25 1.25  32.5 46.25 0  32.5 47.5 0  32.5 47.5 1.25  32.5 47.5 2.5  32.5 46.25 2.5  31.25 46.25 2.5  31.25 47.5 1.25  31.25 47.5 0  31.25 47.5 2.5  33.75 46.25 1.25  33.75 46.25 0  35 46.25 1.25  35 46.25 0  35 47.5 0  35 47.5 1.25  35 47.5 2.5  35 46.25 2.5  33.75 46.25 2.5  33.75 47.5 1.25  33.75 47.5 0  33.75 47.5 2.5  36.25 46.25 1.25  36.25 46.25 0  37.5 46.25 1.25  37.5 46.25 0  37.5 47.5 0  37.5 47.5 1.25  37.5 47.5 2.5  37.5 46.25 2.5  36.25 46.25 2.5  36.25 47.5 1.25  36.25 47.5 0  36.25 47.5 2.5  38.75 46.25 1.25  38.75 46.25 0  40 46.25 1.25  40 46.25 0  40 47.5 0  40 47.5 1.25  40 47.5 2.5  40 46.25 2.5  38.75 46.25 2.5  38.75 47.5 1.25  38.75 47.5 0  38.75 47.5 2.5  41.25 46.25 1.25  41.25 46.25 0  42.5 46.25 1.25  42.5 46.25 0  42.5 47.5 0  42.5 47.5 1.25  42.5 47.5 2.5  42.5 46.25 2.5  41.25 46.25 2.5  41.25 47.5 1.25  41.25 47.5 0  41.25 47.5 2.5  43.75 46.25 1.25  43.75 46.25 0  45 46.25 1.25  45 46.25 0  45 47.5 0  45 47.5 1.25  45 47.5 2.5  45 46.25 2.5  43.75 46.25 2.5  43.75 47.5 1.25  43.75 47.5 0  43.75 47.5 2.5  46.25 46.25 1.25  46.25 46.25 0  47.5 46.25 1.25  47.5 46.25 0  47.5 47.5 0  47.5 47.5 1.25  47.5 47.5 2.5  47.5 46.25 2.5  46.25 46.25 2.5  46.25 47.5 1.25  46.25 47.5 0  46.25 47.5 2.5  48.75 46.25 1.25  48.75 46.25 0  50 46.25 1.25  50 46.25 0  50 47.5 0  50 47.5 1.25  50 47.5 2.5  50 46.25 2.5  48.75 46.25 2.5  48.75 47.5 1.25  48.75 47.5 0  48.75 47.5 2.5  26.25 48.75 1.25  26.25 48.75 0  27.5 48.75 1.25  27.5 48.75 0  27.5 50 0  27.5 50 1.25  27.5 50 2.5  27.5 48.75 2.5  26.25 48.75 2.5  26.25 50 1.25  25 48.75 2.5  25 50 2.5  26.25 50 2.5  28.75 48.75 1.25  28.75 48.75 0  30 48.75 1.25  30 48.75 0  30 50 0  30 50 1.25  30 50 2.5  30 48.75 2.5  28.75 48.75 2.5  28.75 50 1.25  28.75 50 0  28.75 50 2.5  31.25 48.75 1.25  31.25 48.75 0  32.5 48.75 1.25  32.5 48.75 0  32.5 50 0  32.5 50 1.25  32.5 50 2.5  32.5 48.75 2.5  31.25 48.75 2.5  31.25 50 1.25  31.25 50 0  31.25 50 2.5  33.75 48.75 1.25  33.75 48.75 0  35 48.75 1.25  35 48.75 0  35 50 0  35 50 1.25  35 50 2.5  35 48.75 2.5  33.75 48.75 2.5  33.75 50 1.25  33.75 50 0  33.75 50 2.5  36.25 48.75 1.25  36.25 48.75 0  37.5 48.75 1.25  37.5 48.75 0  37.5 50 0  37.5 50 1.25  37.5 50 2.5  37.5 48.75 2.5  36.25 48.75 2.5  36.25 50 1.25  36.25 50 0  36.25 50 2.5  38.75 48.75 1.25  38.75 48.75 0  40 48.75 1.25  40 48.75 0  40 50 0  40 50 1.25  40 50 2.5  40 48.75 2.5  38.75 48.75 2.5  38.75 50 1.25  38.75 50 0  38.75 50 2.5  41.25 48.75 1.25  41.25 48.75 0  42.5 48.75 1.25  42.5 48.75 0  42.5 50 0  42.5 50 1.25  42.5 50 2.5  42.5 48.75 2.5  41.25 48.75 2.5  41.25 50 1.25  41.25 50 0  41.25 50 2.5  43.75 48.75 1.25  43.75 48.75 0  45 48.75 1.25  45 48.75 0  45 50 0  45 50 1.25  45 50 2.5  45 48.75 2.5  43.75 48.75 2.5  43.75 50 1.25  43.75 50 0  43.75 50 2.5  46.25 48.75 1.25  46.25 48.75 0  47.5 48.75 1.25  47.5 48.75 0  47.5 50 0  47.5 50 1.25  47.5 50 2.5  47.5 48.75 2.5  46.25 48.75 2.5  46.25 50 1.25  46.25 50 0  46.25 50 2.5  48.75 48.75 1.25  48.75 48.75 0  50 48.75 1.25  50 48.75 0  50 50 0  50 50 1.25  50 50 2.5  50 48.75 2.5  48.75 48.75 2.5  48.75 50 1.25  48.75 50 0  48.75 50 2.5  27.5 37.5 3.75  27.5 36.25 3.75  26.25 36.25 3.75  27.5 37.5 5  27.5 36.25 5  26.25 36.25 5  26.25 37.5 3.75  25 37.5 5  26.25 37.5 5  25 37.5 3.75  30 37.5 3.75  30 36.25 3.75  28.75 36.25 3.75  30 37.5 5  30 36.25 5  28.75 36.25 5  28.75 37.5 3.75  28.75 37.5 5  32.5 37.5 3.75  32.5 36.25 3.75  31.25 36.25 3.75  32.5 37.5 5  32.5 36.25 5  31.25 36.25 5  31.25 37.5 3.75  31.25 37.5 5  33.75 37.5 3.75  33.75 36.25 3.75  35 37.5 3.75  35 37.5 5  33.75 37.5 5  33.75 36
[...]
<PointData  Vectors="u"> 
<DataArray  type="Float64"  Name="u"  NumberOfComponents="3" format="ascii">1.9999999998076680e+02 -5.7257219755188794e-10 1.2683118270654378e-10  1.9999999998057783e+02 8.3525009940679850e-11 -1.9761554166245794e-11  1.9999999998152131e+02 2.1188473189509896e-10 4.5112320909353691e-12  1.9999999998145321e+02 1.9074061221374212e-11 -9.7857160380436998e-11  1.9999999998075830e+02 -5.3180480076705093e-10 8.8641539685265610e-11  1.9999999998082330e+02 1.2959112703733717e-10 6.8597516342824042e-10  1.9999999998071118e+02 -1.0958627927025695e-11 -1.1777403102063739e-10  1.9999999998048784e+02 -1.7580213175511519e-10 -2.0171791918403344e-10  1.9999999998141109e+02 -1.0203527714457852e-10 -1.5550985306047665e-10  1.9999999998055102e+02 -1.0227342161232927e-10 8.5742400242245538e-12  1.9999999998134535e+02 -2.6591011068004440e-10 -4.2718094818600265e-10  1.9999999998079136e+02 7.0065218390298363e-11 1.7627875418926500e-10  1.9999999998069626e+02 -9.3720880488030452e-11 7.7772770292858620e-11  1.9999999998141624e+02 -1.2411703950664754e-10 -1.6785106668776067e-10  1.9999999998137940e+02 -2.3476332035935055e-10 -1.8977819293173927e-10  1.9999999998148314e+02 -1.2180502350062937e-10 -3.0617560046395023e-11  1.9999999998231715e+02 8.3462930557070962e-11 1.8039031083801533e-10  1.9999999998147996e+02 -5.1542167785804186e-11 3.0755442351406724e-11  1.9999999997916339e+02 1.2007882201521593e-10 6.6225656486768455e-10  1.9999999997902546e+02 -1.9419771335840766e-11 -8.2557273194800950e-11  1.9999999997885280e+02 -1.3322066408960408e-10 -1.8719711901849052e-10  1.9999999997980044e+02 -1.0331638479868967e-10 -1.2772026507107717e-10  1.9999999997903888e+02 -5.6566818443864267e-11 1.1223243236605968e-11  1.9999999997968499e+02 -1.9890849481647947e-10 -4.6123405373177582e-10  1.9999999997914165e+02 1.0311351675141592e-10 1.6148189299763338e-10  1.9999999997902776e+02 -5.8466903198523459e-11 5.3068101622287015e-12  1.9999999997974780e+02 -1.2732704856191355e-10 -1.5503833470283662e-10  1.9999999997975826e+02 -1.9444714613878920e-10 -1.6878276633785749e-10  1.9999999997984409e+02 -9.4115221494985067e-11 9.5266702742321369e-12  1.9999999997987845e+02 -3.5526593802913748e-11 9.2787338654406737e-12  1.9999999997755901e+02 1.2764155253394594e-10 6.5362581615751190e-10  1.9999999997741648e+02 -1.5374826792614850e-11 -9.5656851442401130e-11  1.9999999997725467e+02 -1.2601892005303124e-10 -1.6700474199554003e-10  1.9999999997815382e+02 -8.9656392367522255e-11 -1.4888512213825489e-10  1.9999999997738027e+02 -8.2702794682088603e-11 -6.5822121590428805e-11  1.9999999997800816e+02 -2.4764758522175685e-10 -4.5704158462932319e-10  1.9999999997749765e+02 8.4182788189030875e-11 1.6683969899218196e-10  1.9999999997737552e+02 -8.2426713167205787e-11 3.2210668174345868e-11  1.9999999997815502e+02 -1.1205724131054033e-10 -2.0492931118171600e-10  1.9999999997811830e+02 -1.7133119166612965e-10 -1.6936654458596061e-10  1.9999999997819228e+02 -8.9813091118954833e-11 3.5062417486743936e-11  1.9999999997818310e+02 -2.3903479712932208e-11 1.2104756453510121e-11  1.9999999997592235e+02 1.1215788536550916e-10 6.3960787106525731e-10  1.9999999997580207e+02 -9.5366381527361727e-12 -8.2780362661684971e-11  1.9999999997565547e+02 -1.3354518103823660e-10 -1.7759209146712004e-10  1.9999999997657153e+02 -9.4967285973540967e-11 -1.6495783658355233e-10  1.9999999997573289e+02 -9.0458565013595679e-11 4.0505842275802484e-11  1.9999999997641683e+02 -1.9833655659702338e-10 -4.3574029641968048e-10  1.9999999997591468e+02 7.4505745741046039e-11 1.5803247746499767e-10  1.9999999997652199e+02 -1.9083422274741062e-10 -2.1599130299549078e-10  1.9999999997658273e+02 -9.9116994640632617e-11 -1.6665021500395755e-11  1.9999999997664796e+02 8.9128756017978084e-13 2.9332815969479976e-11  1.9999999997651994e+02 -1.7002589370794964e-10 -1.7846290474267103e-10  1.9999999997487546e+02 -1.7391829834944898e-10 -1.7035934124879248e-10  1.9999999997493273e+02 -8.9127151986501877e-11 -2.1241837384084942e-11  1.9999999997495325e+02 -1.3900780028018801e-10 -1.4841656403251008e-10  1.9999999997482769e+02 -2.1910985484122863e-10 -4.9472450713708298e-10  1.9999999997435350e+02 8.2906064828402569e-11 6.4623860559772353e-10  1.9999999997422657e+02 -7.7541820514315768e-11 -9.6518239537567666e-12  1.9999999997433758e+02 6.8296802192405715e-11 1.5708104446858398e-10  1.9999999997495911e+02 -7.6908605824336005e-12 3.0180516105930429e-11  1.9999999998055398e+02 -1.4226539434249763e-10 -2.2593252666399619e-10  1.9999999998056964e+02 -8.5754558346865571e-11 3.2065664146416587e-12  1.9999999998143221e+02 -8.9071282755591594e-11 -1.3503118195100260e-10  1.9999999998138819e+02 -2.3752704643628651e-10 -4.4792827925443488e-10  1.9999999998081068e+02 1.1349046637328877e-10 6.7729684492956654e-10  1.9999999998068634e+02 -1.6511667636782673e-11 -7.4153105731259327e-11  1.9999999998078226e+02 1.1627867250836863e-10 1.7882316201852377e-10  1.9999999998069086e+02 -6.1308480486429111e-11 4.9698993942872750e-11  1.9999999998138642e+02 -1.1586622274730533e-10 -1.4441027754113646e-10  1.9999999998141095e+02 -1.3877143787971816e-10 -1.6077669166775165e-10  1.9999999998237948e+02 -5.8404925723941672e-12 -8.1556656161832778e-12  1.9999999998230172e+02 1.0493413176415302e-10 1.6187371754645216e-10  1.9999999998147496e+02 -2.3112614071912842e-11 5.2308122680337633e-12  1.9999999997977548e+02 -1.2654220191591086e-10 -1.5520920353708688e-10  1.9999999997969351e+02 -2.3269000779557074e-10 -4.4373179445820214e-10  1.9999999997892525e+02 -1.4306235993326181e-10 -2.0645137060179075e-10  1.9999999997900431e+02 -8.4440031122492466e-11 -3.6364585955040654e-12  1.9999999997919068e+02 1.1789365703421395e-10 6.6766961555869678e-10  1.9999999997906207e+02 -1.0976553779179544e-11 -9.3404790710191704e-11  1.9999999997916001e+02 1.0790088024614720e-10 1.6887126965003325e-10  1.9999999997904578e+02 -7.6281533194119056e-11 7.4403592412337104e-11  1.9999999997977167e+02 -1.2822807588119410e-10 -1.4887148915775784e-10  1.9999999997975027e+02 -1.5208723179261814e-10 -1.8997470507480930e-10  1.9999999997985333e+02 -7.1894312200605973e-11 1.5812002545425962e-11  1.9999999997985074e+02 -1.2535750611191376e-11 6.1095887207768640e-11  1.9999999997815769e+02 -1.0383553537983623e-10 -1.7334141480342729e-10  1.9999999997803184e+02 -2.1055399642988446e-10 -4.3672787899931682e-10  1.9999999997724638e+02 -1.2740198116951220e-10 -1.7565735417408854e-10  1.9999999997733983e+02 -7.4763687107292975e-11 -5.0119948175217140e-12  1.9999999997755097e+02 1.0595599968631974e-10 6.5940128228246442e-10  1.9999999997744899e+02 -2.1757938133270464e-11 -5.1993342073570752e-11  1.9999999997751090e+02 9.4560578405147046e-11 1.5887705735420872e-10  1.9999999997742714e+02 -1.7121977175079370e-11 1.1058863554280122e-11  1.9999999997813370e+02 -1.0739804043362231e-10 -1.4180184868856290e-10  1.9999999997808666e+02 -1.9856300582225698e-10 -1.8018907642760658e-10  1.9999999997815917e+02 -1.1587803938328217e-10 -1.3386337178353104e-11  1.9999999997824622e+02 -1.5356001598830274e-11 5.5848120329341018e-11  1.9999999997656664e+02 -7.7957850883524364e-11 -1.5154364841969814e-10  1.9999999997641925e+02 -2.2199768945040073e-10 -5.0002370189737152e-10  1.9999999997564348e+02 -1.1796104981735110e-10 -1.8401470505864459e-10  1.9999999997575230e+02 -9.5972082614548672e-11 -2.7504765103040126e-12  1.9999999997594972e+02 1.4904279524463575e-10 6.3442723786712840e-10  1.9999999997579260e+02 -4.4986043154128946e-11 -8.3753948596258565e-11  1.9999999997590658e+02 8.4613877869597402e-11 1.5789300883137136e-10  1.9999999997580403e+02 -3.6754149600146146e-11 2.2091665882449813e-11  1.9999999997652205e+02 -8.1833119567331698e-11 -1.6126038263961216e-10  1.9999999997650755e+02 -1.9542545434219401e-10 -1.7625006179301983e-10  1.9999999997660993e+02 -7.0306318170233985e-11 1.1273977823787935e-11  1.9999999997659967e+02 -3.1667503801482410e-11 3.8160869116002812e-11  1.9999999997491716e+02 -5.9679788961103934e-11 -1.4486008003859723e-10  1.9999999997479148e+02 -2.0950815672672532e-10 -4.2106918735719701e-10  1.9999999997404390e+02 -9.7141884476601761e-11 -1.6180637242721760e-10  1.9999999997415517e+02 -3.2964857330382174e-11 -3.3672562295644131e-12  1.9999999997433508e+02 1.2763021954619401e-10 6.4533968832069321e-10  1.9999999997420645e+02 1.1976809753770278e-11 -8.6705561673810968e-11  1.9999999997431965e+02 7.1954140128462629e-11 1.6624266904707671e-10  1.9999999997421563e+02 -1.3809248975299123e-11 6.7726806775641302e-11  1.9999999997492645e+02 -1.1068716484874705e-10 -1.6728773353333367e-10  1.9999999997491423e+02 -1.8852994700881849e-10 -1.9648501297974045e-10  1.9999999997493242e+02 -3.6808591785001065e-11 6.7583450394680704e-12  1.9999999997499043e+02 -6.6225116866969239e-12 4.9630674195747835e-11  1.9999999997280705e+02 7.9376997004020285e-11 6.4586170036509426e-10  1.9999999997267247e+02 -3.3763098285788304e-11 -8.7228992462200343e-11  1.9999999997249918e+02 -9.3644183467524877e-11 -1.9745034297867435e-10  1.9999999997340626e+02 -5.6493326426883568e-11 -1.5133584474659432e-10  1.9999999997279266e+02 1.0468033954036158e-10 1.6533673458440745e-10  1.9999999997266536e+02 -4.2763050250494581e-11 3.4188053694489146e-11  1.9999999997333833e+02 -1.1451305452968280e-10 -1.7332284690577862e-10  1.9999999997329584e+02 -1.9321292051473431e-10 -4.2204885208563619e-10  1.9999999997334913e+02 -2.2435547363612583e-10 -1.7422954189238503e-10  1.9999999997342863e+02 -8.9152512317029287e-11 5.5655365652188948e-12  1.9999999997340637e+02 -3.4148070970336196e-11 4.2851945640539836e-11  1.9999999997176442e+02 -1.6007808504971728e-10 -1.8298450949031943e-10  1.9999999997180066e+02 -1.1139532634971794e-10 4.5746369536844297e-11  1.9999999997180947e+02 -7.6431413621112444e-11 -1.6982879755858728e-10  1.9999999997127466e+02 9.6031893009318556e-11 6.5583442305186265e-10  1.9999999997113949e+02 -1.2819518387862346e-11 -5.4741732246073684e-11  1.9999999997121597e+02 8.8212800822327892e-11 1.5362044267192374e-10  1.9999999997184437e+02 -7.3467735912041470e-12 4.6206930234496469e-11  1.9999999997182388e+02 -1.1926604537390971e-10 -1.2936779636696320e-10  1.9999999998052053e+02 -1.0287195730250533e-10 -1.9846346187080385e-10  1.9999999998060875e+02 -1.2980292187793668e-11 -1.3240105777471359e-11  1.9999999998144904e+02 -7.3269423327966986e-11 -1.3080077354643360e-10  1.9999999998136718e+02 -2.1247695371071869e-10 -4.5346900495829903e-10  1.9999999998082731e+02 1.1906339722077217e-10 6.6145015425693124e-10  1.9999999998069438e+02 -1.9343838721584733e-11 -7.0057354725545938e-11  1.9999999998079676e+02 1.1529856335109270e-10 1.6145569077088961e-10  1.9999999998070646e+02 -4.7779907657702394e-11 5.9418883617165486e-11  1.9999999998139359e+02 -1.1535967304127892e-10 -1.3034093031250580e-10  1.9999999998235239e+02 1.3493138664281043e-10 6.6815643958582814e-10  1.9999999998144770e+02 -1.6969592198501369e-10 -2.1549796766680412e-10  1.9999999998150150e+02 -9.8292291335291795e-11 7.9718693059192294e-12  1.9999999998238820e+02 -4.3487559440827176e-11 -4.7379991043728357e-11  1.9999999998230973e+02 1.0777466372994317e-10 1.9363487461853983e-10  1.9999999998148962e+02 -8.2324778598158091e-12 7.5370504407243725e-11  1.9999999997976471e+02 -8.7372342333238175e-11 -1.4331176374315321e-10  1.9999999997965375e+02 -2.0933913199383134e-10 -4.9769606888686575e-10  1.9999999997892738e+02 -1.3756033573004103e-10 -1.8000238711388071e-10  1.9999999997897098e+02 -8.2100794549505218e-11 -1.1060197143731956e-11  1.9999999997918960e+02 1.5160054411156718e-10 6.8458103901728152e-10  1.9999999997906426e+02 1.4081883355088091e-11 -5.4176532773828163e-11  1.9999999997913307e+02 1.0625881024254055e-10 1.5627274458661907e-10  1.9999999997906176e+02 -4.2542377264755949e-11 3.5354842296257854e-11  1.9999999997973796e+02 -1.1950449725705633e-10 -1.5875119993111241e-10  1.9999999997971750e+02 -1.4069298601637116e-10 -1.7943364832107905e-10  1.9999999997979131e+02 -3.0502718189755772e-11 8.5047831292956126e-12  1.9999999997982258e+02 7.6091869237441735e-12 2.8794748263820984e-11  1.9999999997815050e+02 -6.9087494661602556e-11 -1.3213631286520689e-10  1.9999999997802809e+02 -2.0073619261031988e-10 -5.1586154354045891e-10  1.9999999997725286e+02 -1.3261832158782764e-10 -1.5506921882741402e-10  1.9999999997740093e+02 -1.7247508299490862e-11 -2.3596679564623030e-11  1.9999999997755714e+02 1.2286108915246961e-10 6.3753473884274702e-10  1.9999999997740932e+02 6.4951066635096279e-12 -9.3297277542031075e-11  1.9999999997750984e+02 7.3877721608362225e-11 1.6177455632984677e-10  1.9999999997742233e+02 -2.1957132505475887e-11 2.2560698964750096e-11  1.9999999997813413e+02 -1.4659841729371858e-10 -1.8540461435797861e-10  1.9999999997810278e+02 -1.8843061691917737e-10 -2.0321812677670788e-10  1.9999999997818986e+02 -5.8579658158619614e-11 4.0377669634961221e-11  1.9999999997823784e+02 -7.7872691830838157e-12 5.1063031295927345e-12  1.9999999997656045e+02 -7.5506290726968686e-11 -1.7630564243617419e-10  1.9999999997643820e+02 -1.9625941263098301e-10 -4.1626080243175659e-10  1.9999999997564271e+02 -1.1054804514567523e-10 -2.0204132938744048e-10  1.9999999997573923e+02 -8.5349794578180784e-11 4.3946518409644508e-12  1.9999999997592002e+02 1.2176704704908355e-10 6.5465632520446711e-10  1.9999999997581261e+02 -2.5945851270209030e-12 -8.5448792932299513e-11  1.9999999997590206e+02 6.8357854649699718e-11 1.3549836763651687e-10  1.9999999997583245e+02 -5.1565302588743046e-11 4.9961993136869131e-11  1.9999999997650835e+02 -1.2323732637123346e-10 -1.5477873083925289e-10  1.9999999997653023e+02 -1.9414845563917871e-10 -2.0686477759665438e-10  1.9999999997658281e+02 -8.4244044380701120e-11 1.3126058335656257e-11  1.9999999997661209e+02 -1.1396233735737856e-11 3.4899002626319953e-11  1.9999999997494743e+02 -7.8533541103132654e-11 -1.5608457052731514e-10  1.9999999997481387e+02 -2.6094619199209633e-10 -4.2087952409957591e-10  1.9999999997402998e+02 -1.5331524549628423e-10 -1.9085827030766016e-10  1.9999999997411393e+02 -2.0532777223691386e-11 -4.7122867259964796e-12  1.9999999997437018e+02 1.2224363997583786e-10 6.4408033320980482e-10  1.9999999997421443e+02 3.6348430931225362e-11 -9.3622451440880218e-11  1.9999999997432946e+02 9.0302311828606811e-11 1.5358612881905276e-10  1.9999999997417825e+02 -1.2229573713174406e-11 1.9293644440447490e-11  1.9999999997491338e+02 -1.0744482530212811e-10 -1.6949171346978547e-10  1.9999999997491093e+02 -1.6680123046885099e-10 -1.9199404890353707e-10  1.9999999997496477e+02 -7.9126611147341809e-11 3.7736956190472447e-11  1.9999999997500885e+02 -4.6258428653874869e-11 1.0547831816807853e-11  1.9999999997339472e+02 -6.4614703123416877e-11 -1.6095576048058412e-10  1.9999999997325509e+02 -1.7885851669715489e-10 -4.3772671979394690e-10  1.9999999997252124e+02 -1.3312444407918063e-10 -1.8420350781162867e-10  1.9999999997259104e+02 -5.8531795888695811e-11 4.2512230989242463e-11  1.9999999997280608e+02 1.3095858260543319e-10 6.6235524441010141e-10  1.9999999997269705e+02 6.7187544325831974e-13 -1.0464694793236907e-10  1.9999999997277843e+02 1.1052752946127295e-10 1.7698679531851969e-10  1.9999999997269339e+02 -5.6097110426971043e-11 3.2379405651427675e-11  1.9999999997337170e+02 -8.7388713477531014e-11 -1.3313339329594547e-10  1.9999999997333416e+02 -1.4710620714792624e-10 -1.7633270601377767e-10  1.9999999997336130e+02 -4.2552605170604666e-11 -2.7744939112483061e-11  1.9999999997341510e+02 -5.1573909478766543e-12 3.5649229831449803e-11  1.9999999997181914e+02 -7.2113609420656748e-11 -1.3414793119421216e-10  1.9999999997172162e+02 -1.6701961781348637e-10 -4.1360029807763194e-10  1.9999999997098334e+02 -1.0908545910369167e-10 -1.7893580672756871e-10  1.9999999997107744e+02 -2.2333795577097210e-11 1.4580540752075005e-11  1.9999999997125826e+02 1.3323794495488329e-10 6.3232231713969499e-10  1.9999999997113093e+02 -7.8757576744000475e-13 -8.3817485265852828e-11  1.9999999997120682e+02 1.0420548398973975e-10 1.6405536439535440e-10  1.9999999997113613e+02 -1.5696847300740637e-11 2.9515054629583527e-11  1.9999999997179685e+02 -1.0877045853107104e-10 -1.6277200908700191e-10  1.9999999997177605e+02 -1.4521297902830369e-10 -1.7167170801334963e-10  1.9999999997187933e+02 -5.6695620401677032e-11 1.6784207354609506e-11  1.9999999997189897e+02 -2.3172252717073742e-11 2.6020800135862746e-11  1.9999999996972909e+02 1.1730998373285046e-10 6.8314594268153020e-10  1.9999999996944152e+02 -1.2340910945279312e-10 -2.1265807261722495e-10  1.9999999996953613e+02 -5.0511309732468369e-11 3.5760349490547806e-11  1.9999999997032606e+02 -8.8160256959736488e-11 -1.7120156187694160e-10  1.9999999997020791e+02 -1.8070018525812249e-10 -4.7089552326894343e-10  1.9999999996973813e+02 1.1913825255168960e-10 6.3803909698406766e-10  1.9999999996960440e+02 -1.1537870400072643e-11 -7.2173977394524837e-11  1.9999999996970971e+02 1.1028459915063305e-10 1.3704696041683674e-10  1.9999999996968938e+02 8.5249818649845692e-11 1.3088287291470027e-10  1.9999999996961100e+02 -2.4135996192908208e-11 3.3535172663805048e-11  1.9999999997024966e+02 -1.1317681413206147e-10 -1.3730327294374877e-10  1.9999999997037585e+02 1.3856782123991348e-11 1.6816629424402777e-11  1.9999999997028380e+02 -1.5170507143463367e-10 -1.9461234847836721e-10  1.9999999997031924e+02 -7.4357333471474952e-11 2.2106061561753508e-11  1.9999999997038870e+02 3.8719629544459699e-12 4.3631763290011589e-11  1.9999999996821586e+02 1.0145121830024401e-10 5.9401682439842205e-10  1.9999999996798775e+02 -9.6120826593559758e-11 -1.7850569718670227e-10  1.9999999996805550e+02 -4.4036829067914652e-11 4.2878867574115497e-13  1.9999999996877500e+02 -8.0841196206071106e-11 -1.6294314529033348e-10  1.9999999996868360e+02 -1.6200472660329538e-10 -4.5300670119714935e-10  1.9999999996819446e+02 1.1255254431828025e-10 5.7303360261001720e-10  1.9999999996811053e+02 -1.5680362131959516e-11 -9.0671440391316051e-11  1.9999999996817368e+02 9.3473711061313656e-11 1.3204046977062087e-10  1.9999999996819119e+02 4.6963891743015744e-11 1.5337976528325560e-10  1.9999999996813455e+02 -2.0821460701283347e-11 2.7540852544492440e-11  1.9999999996876653e+02 -9.2146400063437699e-11 -1.9319787669078926e-10  1.9999999996889227e+02 -3.9234474142366541e-11 2.4262008740131806e-11  1.9999999996873453e+02 -1.4857089987096333e-10 -1.7742869453451546e-10  1.9999999996881539e+02 -7.6191146558643083e-11 -6.1937100444563368e-12  1.9999999996881621e+02 3.2269530086260361e-11 1.7707110423798150e-11  1.9999999996663698e+02 3.9301764018517097e-11 2.9136346321724602e-10  1.9999999996632840e+02 6.6034983174376032e-12 -1.4552154732686795e-11  1.9999999996644272e+02 1.7037806107101286e-12 -1.0057510407157977e-10  1.9999999996735471e+02 -8.3535997697143632e-11 -1.4313983580206707e-10  1.9999999996725941e+02 -1.7511000441443034e-10 -3.7041775063293850e-10  1.9999999996661191e+02 3.1105150966447223e-11 2.9842861178181413e-10  1.9999999996644229e+02 -1.5335408372884610e-11 -3.6168694469758156e-11  1.9999999996659767e+02 2.4381718536173927e-11 5.7426660862340461e-11  1.9999999996648251e+02 3.2841387199307006e-12 -2.2177371027013117e-11  1.9999999996660776e+02 3.1165739007972674e-11 6.2786771086643060e-11  1.9999999996641384e+02 -1.0614580696281358e-11 6.7783331980318107e-12  1.9999999996733405e+02 -1.0734277072024558e-10 -1.5586451387365232e-10  1.9999999996738893e+02 -1.6588431796951161e-11 3.4983316753448447e-11  1.9999999996733843e+02 -2.0251433092293084e-10 -1.6751797838650290e-10  1.9999999996739172e+02 -1.0232972288178397e-10 3.7514883167523635e-12  1.9999999996738566e+02 -5.7797908965563022e-12 5.9363805932749632e-12  1.9999999998146629e+02 -5.6700149116769317e-11 -1.1587208497996522e-10  1.9999999998134223e+02 -2.2997079273562074e-10 -4.5581040907091003e-10  1.9999999998051811e+02 -1.2422974179050693e-10 -1.6427023716484228e-10  1.9999999998066585e+02 -8.8204182923979214e-11 -3.7222652396984805e-11  1.9999999998082231e+02 1.2719681634906291e-10 6.7053753369758409e-10  1.99999