<?xml version="1.0"?>
<VTKFile type="UnstructuredGrid"  version="0.1"  >
<UnstructuredGrid>
<Piece  NumberOfPoints="3964" NumberOfCells="18978">
<Points>
<DataArray  type="Float64"  NumberOfComponents="3"  format="ascii">37.5 0 10  38.75 1.25 11.25  38.75 0 11.25  38.75 0 10  40 0 10  40 1.25 11.25  40 0 11.25  40 0 12.5  40 1.25 12.5  40 2.5 12.5  37.5 0 11.25  37.5 0 12.5  38.75 1.25 12.5  38.75 0 12.5  41.25 1.25 11.25  41.25 0 11.25  41.25 1.25 12.5  41.25 0 12.5  42.5 0 12.5  42.5 1.25 12.5  42.5 2.5 12.5  41.25 2.5 12.5  38.75 1.25 13.75  40 1.25 13.75  40 2.5 13.75  40 2.5 15  38.75 0 13.75  40 0 13.75  40 0 15  40 1.25 15  37.5 0 13.75  37.5 0 15  38.75 1.25 15  38.75 0 15  41.25 1.25 13.75  42.5 1.25 13.75  42.5 2.5 13.75  42.5 2.5 15  41.25 0 13.75  42.5 0 13.75  42.5 0 15  42.5 1.25 15  41.25 1.25 15  41.25 0 15  41.25 2.5 13.75  41.25 2.5 15  43.75 1.25 13.75  43.75 1.25 12.5  43.75 0 12.5  45 0 12.5  45 1.25 13.75  45 1.25 12.5  45 2.5 12.5  45 2.5 13.75  45 2.5 15  43.75 0 13.75  45 0 13.75  45 0 15  45 1.25 15  43.75 1.25 15  43.75 0 15  43.75 2.5 13.75  43.75 2.5 12.5  43.75 2.5 15  46.25 1.25 13.75  46.25 1.25 12.5  46.25 0 12.5  47.5 0 12.5  47.5 1.25 13.75  47.5 1.25 12.5  47.5 2.5 12.5  47.5 2.5 13.75  47.5 2.5 15  46.25 0 13.75  47.5 0 13.75  47.5 0 15  47.5 1.25 15  46.25 1.25 15  46.25 0 15  46.25 2.5 13.75  46.25 2.5 12.5  46.25 2.5 15  48.75 1.25 13.75  48.75 1.25 12.5  48.75 0 12.5  50 0 12.5  50 1.25 13.75  50 1.25 12.5  50 2.5 12.5  50 2.5 13.75  50 2.5 15  48.75 0 13.75  50 0 13.75  50 0 15  50 1.25 15  48.75 1.25 15  48.75 0 15  48.75 2.5 13.75  48.75 2.5 12.5  48.75 2.5 15  41.25 3.75 13.75  41.25 3.75 12.5  42.5 3.75 13.75  42.5 3.75 12.5  42.5 5 12.5  42.5 5 13.75  42.5 5 15  42.5 3.75 15  41.25 3.75 15  40 3.75 12.5  40 5 12.5  41.25 5 13.75  41.25 5 12.5  40 3.75 13.75  40 3.75 15  41.25 5 15  43.75 3.75 13.75  45 3.75 13.75  45 3.75 15  45 5 15  43.75 3.75 15  43.75 5 15  43.75 5 13.75  46.25 3.75 13.75  47.5 3.75 13.75  47.5 3.75 15  47.5 5 15  46.25 3.75 15  46.25 5 15  48.75 3.75 13.75  50 3.75 13.75  50 3.75 15  50 5 15  48.75 3.75 15  48.75 5 15  41.25 6.25 13.75  42.5 6.25 13.75  42.5 6.25 15  42.5 7.5 15  41.25 6.25 15  40 7.5 15  41.25 7.5 15  41.25 7.5 13.75  43.75 6.25 13.75  43.75 6.25 15  45 6.25 15  45 7.5 15  43.75 7.5 15  41.25 8.75 15  41.25 8.75 13.75  42.5 8.75 15  42.5 10 15  40 10 15  41.25 10 15  38.75 1.25 16.25  40 1.25 16.25  40 2.5 16.25  40 2.5 17.5  38.75 0 16.25  40 0 16.25  40 0 17.5  40 1.25 17.5  37.5 0 16.25  37.5 0 17.5  38.75 0 17.5  41.25 1.25 16.25  42.5 1.25 16.25  42.5 2.5 16.25  42.5 2.5 17.5  41.25 0 16.25  42.5 0 16.25  42.5 0 17.5  42.5 1.25 17.5  41.25 1.25 17.5  41.25 0 17.5  41.25 2.5 16.25  41.25 2.5 17.5  43.75 1.25 16.25  45 1.25 16.25  45 2.5 16.25  45 2.5 17.5  43.75 0 16.25  45 0 16.25  45 0 17.5  45 1.25 17.5  43.75 1.25 17.5  43.75 0 17.5  43.75 2.5 16.25  43.75 2.5 17.5  46.25 1.25 16.25  47.5 1.25 16.25  47.5 2.5 16.25  47.5 2.5 17.5  46.25 0 16.25  47.5 0 16.25  47.5 0 17.5  47.5 1.25 17.5  46.25 1.25 17.5  46.25 0 17.5  46.25 2.5 16.25  46.25 2.5 17.5  48.75 1.25 16.25  50 1.25 16.25  50 2.5 16.25  50 2.5 17.5  48.75 0 16.25  50 0 16.25  50 0 17.5  50 1.25 17.5  48.75 1.25 17.5  48.75 0 17.5  48.75 2.5 16.25  48.75 2.5 17.5  41.25 3.75 16.25  42.5 3.75 16.25  42.5 5 16.25  42.5 5 17.5  42.5 3.75 17.5  41.25 3.75 17.5  41.25 5 16.25  40 3.75 16.25  40 3.75 17.5  40 5 17.5  41.25 5 17.5  43.75 3.75 16.25  45 3.75 16.25  45 5 16.25  45 5 17.5  45 3.75 17.5  43.75 3.75 17.5  43.75 5 16.25  43.75 5 17.5  46.25 3.75 16.25  47.5 3.75 16.25  47.5 5 16.25  47.5 5 17.5  47.5 3.75 17.5  46.25 3.75 17.5  46.25 5 16.25  46.25 5 17.5  48.75 3.75 16.25  50 3.75 16.25  50 5 16.25  50 5 17.5  50 3.75 17.5  48.75 3.75 17.5  48.75 5 16.25  48.75 5 17.5  42.5 6.25 16.25  41.25 6.25 16.25  42.5 7.5 16.25  42.5 7.5 17.5  42.5 6.25 17.5  41.25 6.25 17.5  41.25 7.5 16.25  40 6.25 17.5  40 6.25 16.25  40 7.5 17.5  41.25 7.5 17.5  40 7.5 16.25  43.75 6.25 16.25  45 6.25 16.25  45 7.5 16.25  45 7.5 17.5  45 6.25 17.5  43.75 6.25 17.5  43.75 7.5 16.25  43.75 7.5 17.5  46.25 6.25 16.25  46.25 6.25 15  47.5 6.25 16.25  47.5 6.25 15  47.5 7.5 15  47.5 7.5 16.25  47.5 7.5 17.5  47.5 6.25 17.5  46.25 6.25 17.5  46.25 7.5 16.25  46.25 7.5 15  46.25 7.5 17.5  48.75 6.25 16.25  48.75 6.25 15  50 6.25 16.25  50 6.25 15  50 7.5 15  50 7.5 16.25  50 7.5 17.5  50 6.25 17.5  48.75 6.25 17.5  48.75 7.5 16.25  48.75 7.5 15  48.75 7.5 17.5  41.25 8.75 16.25  42.5 8.75 16.25  42.5 10 16.25  42.5 10 17.5  42.5 8.75 17.5  41.25 8.75 17.5  41.25 10 16.25  40 10 17.5  41.25 10 17.5  40 10 16.25  43.75 8.75 16.25  43.75 8.75 15  45 8.75 16.25  45 8.75 15  45 10 15  45 10 16.25  45 10 17.5  45 8.75 17.5  43.75 8.75 17.5  43.75 10 16.25  43.75 10 15  43.75 10 17.5  46.25 8.75 16.25  47.5 8.75 16.25  47.5 8.75 17.5  47.5 10 17.5  46.25 8.75 17.5  46.25 10 17.5  46.25 10 16.25  48.75 8.75 16.25  50 8.75 16.25  50 8.75 17.5  50 10 17.5  48.75 8.75 17.5  48.75 10 17.5  40 11.25 16.25  40 11.25 15  38.75 11.25 16.25  38.75 11.25 15  40 12.5 15  40 12.5 16.25  40 12.5 17.5  40 11.25 17.5  38.75 12.5 16.25  41.25 11.25 16.25  41.25 11.25 15  42.5 11.25 16.25  42.5 11.25 15  42.5 12.5 15  42.5 12.5 16.25  42.5 12.5 17.5  42.5 11.25 17.5  41.25 11.25 17.5  41.25 12.5 16.25  41.25 12.5 15  41.25 12.5 17.5  43.75 11.25 16.25  45 11.25 16.25  45 11.25 17.5  45 12.5 17.5  43.75 11.25 17.5  43.75 12.5 17.5  43.75 12.5 16.25  46.25 11.25 16.25  46.25 11.25 17.5  47.5 11.25 17.5  47.5 12.5 17.5  46.25 12.5 17.5  40 13.75 16.25  38.75 13.75 16.25  40 13.75 17.5  40 15 17.5  38.75 13.75 17.5  38.75 15 17.5  41.25 13.75 16.25  42.5 13.75 16.25  42.5 13.75 17.5  42.5 15 17.5  41.25 13.75 17.5  41.25 15 17.5  43.75 13.75 16.25  43.75 13.75 17.5  45 13.75 17.5  45 15 17.5  43.75 15 17.5  41.25 1.25 18.75  42.5 1.25 18.75  42.5 2.5 18.75  42.5 2.5 20  41.25 0 18.75  42.5 0 18.75  42.5 0 20  42.5 1.25 20  40 0 18.75  40 0 20  41.25 1.25 20  41.25 0 20  41.25 2.5 18.75  40 1.25 20  40 2.5 20  41.25 2.5 20  40 2.5 18.75  43.75 1.25 18.75  45 1.25 18.75  45 2.5 18.75  45 2.5 20  43.75 0 18.75  45 0 18.75  45 0 20  45 1.25 20  43.75 1.25 20  43.75 0 20  43.75 2.5 18.75  43.75 2.5 20  46.25 1.25 18.75  47.5 1.25 18.75  47.5 2.5 18.75  47.5 2.5 20  46.25 0 18.75  47.5 0 18.75  47.5 0 20  47.5 1.25 20  46.25 1.25 20  46.25 0 20  46.25 2.5 18.75  46.25 2.5 20  48.75 1.25 18.75  50 1.25 18.75  50 2.5 18.75  50 2.5 20  48.75 0 18.75  50 0 18.75  50 0 20  50 1.25 20  48.75 1.25 20  48.75 0 20  48.75 2.5 18.75  48.75 2.5 20  40 3.75 18.75  38.75 3.75 18.75  40 5 18.75  40 5 20  40 3.75 20  38.75 3.75 20  41.25 3.75 18.75  42.5 3.75 18.75  42.5 5 18.75  42.5 5 20  42.5 3.75 20  41.25 3.75 20  41.25 5 18.75  41.25 5 20  43.75 3.75 18.75  45 3.75 18.75  45 5 18.75  45 5 20  45 3.75 20  43.75 3.75 20  43.75 5 18.75  43.75 5 20  46.25 3.75 18.75  47.5 3.75 18.75  47.5 5 18.75  47.5 5 20  47.5 3.75 20  46.25 3.75 20  46.25 5 18.75  46.25 5 20  48.75 3.75 18.75  50 3.75 18.75  50 5 18.75  50 5 20  50 3.75 20  48.75 3.75 20  48.75 5 18.75  48.75 5 20  41.25 6.25 18.75  42.5 6.25 18.75  42.5 7.5 18.75  42.5 7.5 20  42.5 6.25 20  41.25 6.25 20  41.25 7.5 18.75  40 6.25 18.75  40 6.25 20  40 7.5 20  41.25 7.5 20  40 7.5 18.75  43.75 6.25 18.75  45 6.25 18.75  45 7.5 18.75  45 7.5 20  45 6.25 20  43.75 6.25 20  43.75 7.5 18.75  43.75 7.5 20  46.25 6.25 18.75  47.5 6.25 18.75  47.5 7.5 18.75  47.5 7.5 20  47.5 6.25 20  46.25 6.25 20  46.25 7.5 18.75  46.25 7.5 20  48.75 6.25 18.75  50 6.25 18.75  50 7.5 18.75  50 7.5 20  50 6.25 20  48.75 6.25 20  48.75 7.5 18.75  48.75 7.5 20  41.25 8.75 18.75  42.5 8.75 18.75  42.5 10 18.75  42.5 10 20  42.5 8.75 20  41.25 8.75 20  41.25 10 18.75  40 10 20  41.25 10 20  40 10 18.75  43.75 8.75 18.75  45 8.75 18.75  45 10 18.75  45 10 20  45 8.75 20  43.75 8.75 20  43.75 10 18.75  43.75 10 20  46.25 8.75 18.75  47.5 8.75 18.75  47.5 10 18.75  47.5 10 20  47.5 8.75 20  46.25 8.75 20  46.25 10 18.75  46.25 10 20  48.75 8.75 18.75  50 8.75 18.75  50 10 18.75  50 10 20  50 8.75 20  48.75 8.75 20  48.75 10 18.75  48.75 10 20  40 11.25 18.75  38.75 11.25 18.75  40 12.5 18.75  40 12.5 20  40 11.25 20  38.75 12.5 18.75  41.25 11.25 18.75  42.5 11.25 18.75  42.5 12.5 18.75  42.5 12.5 20  42.5 11.25 20  41.25 11.25 20  41.25 12.5 18.75  41.25 12.5 20  43.75 11.25 18.75  45 11.25 18.75  45 12.5 18.75  45 12.5 20  45 11.25 20  43.75 11.25 20  43.75 12.5 18.75  43.75 12.5 20  46.25 11.25 18.75  47.5 11.25 18.75  47.5 12.5 18.75  47.5 12.5 20  47.5 11.25 20  46.25 11.25 20  46.25 12.5 18.75  46.25 12.5 20  48.75 11.25 18.75  48.75 11.25 17.5  50 11.25 18.75  50 11.25 17.5  50 12.5 17.5  50 12.5 18.75  50 12.5 20  50 11.25 20  48.75 11.25 20  48.75 12.5 18.75  48.75 12.5 17.5  48.75 12.5 20  40 13.75 18.75  38.75 13.75 18.75  40 15 18.75  40 15 20  40 13.75 20  38.75 13.75 20  41.25 13.75 18.75  42.5 13.75 18.75  42.5 15 18.75  42.5 15 20  42.5 13.75 20  41.25 13.75 20  41.25 15 18.75  41.25 15 20  43.75 13.75 18.75  45 13.75 18.75  45 15 18.75  45 15 20  45 13.75 20  43.75 13.75 20  43.75 15 18.75  43.75 15 20  46.25 13.75 18.75  46.25 13.75 17.5  47.5 13.75 18.75  47.5 13.75 17.5  47.5 15 17.5  47.5 15 18.75  47.5 15 20  47.5 13.75 20  46.25 13.75 20  46.25 15 18.75  46.25 15 17.5  46.25 15 20  48.75 13.75 18.75  48.75 13.75 17.5  50 13.75 18.75  50 13.75 17.5  50 15 17.5  50 15 18.75  50 15 20  50 13.75 20  48.75 13.75 20  48.75 15 18.75  48.75 15 17.5  48.75 15 20  40 16.25 18.75  38.75 16.25 18.75  40 16.25 20  40 17.5 20  38.75 16.25 20  41.25 16.25 18.75  42.5 16.25 18.75  42.5 16.25 20  42.5 17.5 20  41.25 16.25 20  41.25 17.5 20  43.75 16.25 18.75  45 16.25 18.75  45 16.25 20  45 17.5 20  43.75 16.25 20  43.75 17.5 20  46.25 16.25 18.75  47.5 16.25 18.75  47.5 16.25 20  47.5 17.5 20  46.25 16.25 20  46.25 17.5 20  48.75 16.25 18.75  50 16.25 18.75  50 16.25 20  50 17.5 20  48.75 16.25 20  48.75 17.5 20  40 18.75 20  38.75 18.75 20  38.75 18.75 18.75  40 20 20  40 1.25 21.25  38.75 1.25 21
[...]
<PointData  Vectors="u"> 
<DataArray  type="Float64"  Name="u"  NumberOfComponents="3" format="ascii">1.9999999997439667e+02 6.2748226364792133e-10 2.7295988936029997e-11  1.9999999997339992e+02 -1.2623828895330168e-10 -3.6918336287458720e-11  1.9999999997339987e+02 -3.0718985797259381e-10 3.4006249701449218e-11  1.9999999997346541e+02 3.1827824558794637e-11 1.7483938718625714e-10  1.9999999997273761e+02 5.4758465939519031e-10 1.7724169193769321e-12  1.9999999997248119e+02 -1.5888978782041256e-10 -2.7234004132760815e-11  1.9999999997256506e+02 -1.5512299749754904e-11 1.9558019989032650e-11  1.9999999997272442e+02 5.6449264005488732e-10 1.1086685063952004e-10  1.9999999997271098e+02 -1.2717653467994610e-10 -1.2932784173862126e-10  1.9999999997274185e+02 1.5259518849528789e-10 8.0381022132315972e-11  1.9999999997425232e+02 5.8866305668681723e-11 -3.9224575582598399e-12  1.9999999997437533e+02 5.0755986368031974e-10 9.5223956787027512e-11  1.9999999997344554e+02 -1.1801371914828453e-10 5.3352435154089601e-11  1.9999999997346822e+02 1.8206141430580420e-12 -1.2211601006970909e-10  1.9999999997187007e+02 -9.9545563223075424e-11 -5.0117644652564350e-11  1.9999999997180896e+02 -4.2296697568198757e-10 -2.8990853834375852e-11  1.9999999997182323e+02 -1.5745047126718288e-10 -1.9992112536150987e-10  1.9999999997185060e+02 -7.9035669670301176e-11 -1.0041766104509375e-10  1.9999999997126304e+02 5.9761661790368795e-10 1.2991548175743084e-11  1.9999999997109836e+02 -8.4092209346890642e-11 -6.7094865557053558e-12  1.9999999997124553e+02 9.4201037904019455e-11 -1.8880367853323668e-11  1.9999999997189980e+02 -4.9465177149437964e-11 -3.0439147541687043e-11  1.9999999997345137e+02 -8.8797506844181747e-11 -8.8235990058471067e-11  1.9999999997265712e+02 -1.0625415840562416e-10 -2.2222116580643252e-10  1.9999999997274881e+02 -5.7424645521537635e-11 -6.2982837754875244e-11  1.9999999997269737e+02 9.9736656647146799e-11 9.7951133610916849e-11  1.9999999997345867e+02 -4.1890634020349365e-10 -1.5776839618018814e-12  1.9999999997273306e+02 6.0239955009504006e-12 -7.7728291832338460e-11  1.9999999997271146e+02 4.7395202701389923e-10 1.1747792226139840e-10  1.9999999997274094e+02 -5.8738931212417027e-11 2.9366926566793714e-11  1.9999999997422154e+02 8.5858475247003181e-11 -5.8624381460741193e-11  1.9999999997436393e+02 5.0255878803113318e-10 9.6357137815874009e-11  1.9999999997342280e+02 -1.2835339279904995e-10 -9.6435445404598419e-11  1.9999999997346197e+02 1.1170290696154367e-10 -8.8817367661375421e-11  1.9999999997182584e+02 -1.5833164143875252e-10 -6.7455810247067078e-11  1.9999999997094434e+02 -9.4661258376010614e-11 -1.3055854034665089e-10  1.9999999997111112e+02 2.9261050096955708e-12 -4.1238717525044577e-11  1.9999999997123584e+02 8.3818737406085790e-11 1.1549808995752544e-10  1.9999999997182636e+02 -3.2752457704960966e-10 2.2435358680001396e-12  1.9999999997108233e+02 6.8711107056598373e-11 -2.4144189659128425e-12  1.9999999997120227e+02 4.9053631169382802e-10 1.0776048029248956e-10  1.9999999997114304e+02 -1.0089665438276432e-10 5.8318810810793567e-11  1.9999999997184116e+02 -1.6773735796568488e-11 -9.1395484916249540e-11  1.9999999997194357e+02 -1.8951882274526316e-12 -7.4689619617120845e-11  1.9999999997180231e+02 -1.4320924069117399e-10 -1.1489825480884747e-10  1.9999999997189030e+02 3.3189163660805742e-11 -9.3395178972652528e-11  1.9999999997029823e+02 -1.4344568285031469e-10 -1.0724718679963522e-10  1.9999999997013879e+02 -2.7066449751977639e-10 -4.4520948490174497e-11  1.9999999997030417e+02 -1.5738422717401902e-11 -2.0627534715848764e-11  1.9999999996969694e+02 6.2163827374784967e-10 1.2161100871838892e-11  1.9999999996938541e+02 -9.7603139235013347e-11 -1.1101285842885141e-10  1.9999999996958223e+02 -9.4518388982205595e-11 2.0354548541795774e-11  1.9999999996972960e+02 9.5461160491469228e-11 -5.9736609496013623e-13  1.9999999996963587e+02 2.2568201380165409e-11 -4.3943013033410581e-11  1.9999999996970701e+02 7.4770980019559436e-11 1.0058774031544760e-10  1.9999999997030676e+02 -3.4559018929436682e-10 3.5097425587031818e-11  1.9999999996952903e+02 6.0923911140564918e-11 -1.3497792671787512e-11  1.9999999996965892e+02 4.4253128022780356e-10 9.6667668795126122e-11  1.9999999996961287e+02 -7.6852483478294962e-11 7.9648659124846873e-11  1.9999999997025213e+02 -6.1246869670401947e-11 -9.5645478060083376e-11  1.9999999997036031e+02 1.7664714825970752e-11 -5.3209572962912364e-11  1.9999999997026151e+02 -1.7368361945987837e-10 -1.0868963389169102e-10  1.9999999997032504e+02 -9.4339650117831761e-11 6.0475882195964020e-11  1.9999999997032407e+02 6.8045646259533960e-11 -7.3885256618149362e-11  1.9999999996878520e+02 -1.1697396046617286e-10 -9.1294365262274979e-11  1.9999999996867243e+02 -2.2280903811983847e-10 -9.9870489504815924e-11  1.9999999996879535e+02 -7.3712290544200316e-11 -2.9386709953837831e-11  1.9999999996826287e+02 6.2562240014883357e-10 -4.4435236384978504e-11  1.9999999996798519e+02 -9.7618499677841645e-11 -6.3464078640901847e-11  1.9999999996810064e+02 -1.2382619250964831e-10 2.0015048665518811e-12  1.9999999996818892e+02 1.0785010246947283e-10 -1.9525443482350647e-11  1.9999999996811243e+02 1.0412818760917236e-11 -1.8247228210996152e-11  1.9999999996820279e+02 7.7016503257947653e-11 6.2473604972835362e-11  1.9999999996879998e+02 -2.7059321929471682e-10 4.1173221782191044e-11  1.9999999996810823e+02 3.2999989429837642e-11 2.5814338367922310e-11  1.9999999996821143e+02 4.4734007631912338e-10 6.2052683777976756e-11  1.9999999996814731e+02 -6.6936259667511434e-11 2.9942732793891364e-11  1.9999999996874666e+02 -1.3866780261265982e-11 -9.4838309335239208e-11  1.9999999996883614e+02 3.4317173317271748e-11 -4.1523531958126243e-11  1.9999999996875783e+02 -1.2828214515499761e-10 -1.1657254398966336e-10  1.9999999996883656e+02 -3.6264421750918514e-11 5.1860273264153419e-11  1.9999999996886217e+02 6.1180299208599583e-11 -1.0073886737298210e-10  1.9999999996733391e+02 -1.1440514140445120e-10 -9.8285093724523552e-11  1.9999999996724637e+02 -2.5688622821407687e-10 -5.9948495027778406e-11  1.9999999996735303e+02 -6.1112448504630374e-11 1.5719158887124001e-11  1.9999999996661688e+02 2.5242561055565725e-10 2.1452761995712467e-11  1.9999999996640844e+02 -6.6480499353462302e-12 -1.0316221366952793e-11  1.9999999996647014e+02 3.6333069000341279e-12 1.3270832650000132e-10  1.9999999996661862e+02 4.6115859305110175e-11 1.9258857275084547e-11  1.9999999996643652e+02 -8.1474890077776516e-12 -1.1171573590431119e-11  1.9999999996661322e+02 2.6070661800890904e-11 2.9795704423386327e-11  1.9999999996738259e+02 -2.5936460045940044e-10 2.7217779709122715e-11  1.9999999996644195e+02 -4.9039477847998798e-11 -1.9399345249313072e-11  1.9999999996661978e+02 1.9319316170115573e-10 7.2049188371163494e-12  1.9999999996645195e+02 1.7094954382674056e-11 3.2844059508220418e-11  1.9999999996733465e+02 -1.3175548956918152e-11 -1.2133228172390329e-10  1.9999999996732791e+02 3.5485322757061506e-11 -1.0055630588522560e-10  1.9999999996735019e+02 -1.8495888291406259e-10 -7.1068691933187731e-11  1.9999999996740007e+02 -8.3507246127253573e-11 7.6915333677846664e-11  1.9999999996738276e+02 5.8267521615270698e-11 -1.2997711578553685e-10  1.9999999997182954e+02 -8.7260801397117439e-11 -9.5078678332872415e-11  1.9999999997175081e+02 -1.8848501387002846e-10 -5.7758904618511653e-11  1.9999999997100815e+02 -1.1793062184142054e-10 -7.4258844737976126e-11  1.9999999997105968e+02 -2.1629803866412831e-12 4.3294793975115061e-11  1.9999999997120690e+02 1.2405065029683307e-10 6.6153479775272138e-13  1.9999999997113369e+02 2.0078951310812206e-11 -3.8887692139885437e-11  1.9999999997126093e+02 1.2784618793933827e-10 7.6401289694050898e-11  1.9999999997114733e+02 -4.5057191804548400e-11 -4.7306944886692984e-11  1.9999999997183460e+02 -1.0008156174916447e-10 -1.7734179850025373e-10  1.9999999997257518e+02 -3.7069283582276590e-11 -4.2376426214372165e-11  1.9999999997270379e+02 1.3007751930954856e-10 2.0102042915340359e-11  1.9999999997182672e+02 -1.2842282699143642e-10 -1.1462782228500249e-10  1.9999999997191910e+02 -6.7052576502775477e-11 5.4988416256406744e-11  1.9999999997266880e+02 -1.9837814059101468e-10 -2.0939033077810056e-10  1.9999999997268282e+02 -2.9393036576759795e-11 -1.0726408199284401e-10  1.9999999997191546e+02 -9.3803464775096495e-12 -6.0857867999575689e-11  1.9999999997029812e+02 -6.7949611989113041e-11 -6.6655998469928966e-11  1.9999999996937302e+02 -9.0181782021192897e-11 -2.8164021865293005e-11  1.9999999996962208e+02 6.4689393574706483e-12 -5.9972527275247818e-11  1.9999999996970732e+02 1.1455637199555815e-10 2.2258885818635108e-11  1.9999999997026242e+02 -7.7465136545651528e-11 -1.5961032015250683e-10  1.9999999997031540e+02 4.3576489628813850e-11 -4.2187652504921392e-11  1.9999999997029718e+02 -2.0093344263589143e-10 3.6635498615676992e-12  1.9999999996880288e+02 -6.0788921366153225e-11 -6.0770660646333127e-11  1.9999999996787557e+02 -1.0000190024786576e-10 -2.8675054694834079e-11  1.9999999996812687e+02 9.3960869199355092e-12 -7.0771798728466955e-11  1.9999999996816354e+02 1.0279559638729321e-10 2.1756433091513557e-11  1.9999999996875590e+02 -5.4930461116719145e-11 -1.8569397908725588e-10  1.9999999996888468e+02 -7.1765774548148414e-11 2.6056510619246248e-11  1.9999999996731520e+02 -8.4012004552586721e-11 -3.2347973404098606e-11  1.9999999996633403e+02 1.9608136640707937e-11 -1.3313777255003139e-11  1.9999999996640506e+02 -4.5218865254646116e-12 -1.4034636852058646e-11  1.9999999996658138e+02 4.2264740056739660e-11 -4.8444236153421184e-12  1.9999999996732797e+02 -8.8823470345671873e-11 -2.1284385903415268e-10  1.9999999996734428e+02 -8.5418242331314057e-11 1.6678234063001458e-11  1.9999999997188365e+02 -9.4258136321341796e-11 -7.7676699058198345e-11  1.9999999997092181e+02 -9.0657401117048841e-11 -6.2853866596542137e-11  1.9999999997115125e+02 -6.8742484872805206e-11 -4.1885566554142403e-11  1.9999999997125047e+02 8.9711170159462324e-11 2.4218974929088124e-11  1.9999999997185589e+02 -1.2737043789572179e-10 -1.7392529278129934e-10  1.9999999997264450e+02 1.2933978309823721e-10 9.5883219738454816e-11  1.9999999997190108e+02 -3.7637200028782101e-12 -4.0333330413938860e-11  1.9999999997187794e+02 -2.3665347503990493e-10 -2.7190659719758513e-11  1.9999999997029883e+02 -6.7642159033566987e-11 -1.6001242534210597e-11  1.9999999997027919e+02 -1.6989652413630671e-10 -2.3484000690339207e-10  1.9999999996951308e+02 -3.0020264767740720e-11 -3.9638689209551465e-12  1.9999999996972196e+02 9.4090541332285616e-11 -1.6258199670463531e-11  1.9999999997033498e+02 -7.5916065557796339e-11 -1.3933282206586124e-11  1.9999999997182309e+02 -1.0508834923238359e-10 -1.7866116499643467e-10  1.9999999997189340e+02 -4.3792636466125356e-11 -5.0909984892050713e-11  1.9999999997109023e+02 -1.2527194563318469e-11 1.7257374292300138e-11  1.9999999997124178e+02 8.6286659899790640e-11 -4.2769973213933678e-12  1.9999999997265866e+02 1.3443861627441386e-10 6.2497114215607747e-11  1.9999999997188752e+02 -9.6183039392231508e-11 4.8354523351075731e-11  1.9999999997346339e+02 -1.0756856342346129e-10 -5.1081135534168116e-11  1.9999999997274480e+02 8.0515756049437360e-12 -1.7991536475370425e-10  1.9999999997267992e+02 3.3472971132441437e-11 -5.7577398670745818e-11  1.9999999997270129e+02 3.4926939625100692e-11 1.1726508378005935e-10  1.9999999997347174e+02 -4.3283945712906589e-10 -5.7837648588801238e-11  1.9999999997270265e+02 5.6699702413503696e-11 -3.7493353951873451e-11  1.9999999997269535e+02 5.1501680124409149e-10 1.0718530729848279e-10  1.9999999997271956e+02 -1.1042743309803611e-10 -6.8074997414528859e-11  1.9999999997420832e+02 2.7143722953901168e-12 -1.1459207498453285e-11  1.9999999997434631e+02 4.9017995393849180e-10 8.4404626736414532e-11  1.9999999997349343e+02 1.2610145217697526e-10 -7.6726704559184240e-11  1.9999999997182078e+02 -9.7662826551860168e-11 -5.2240674485793487e-11  1.9999999997100261e+02 -5.6854501027171316e-11 -1.1880802823843331e-10  1.9999999997104888e+02 1.5833438136400913e-11 -8.3789017919133044e-11  1.9999999997125920e+02 1.1102904801092884e-12 1.1905418933730050e-10  1.9999999997187501e+02 -4.0569635059963261e-10 -7.0180602605640870e-11  1.9999999997107378e+02 7.3588547586510742e-11 -2.4691769639551510e-11  1.9999999997122057e+02 4.6218527479929323e-10 6.3890429907043073e-11  1.9999999997116072e+02 -5.3579735367238025e-11 1.1609138579607275e-11  1.9999999997180879e+02 -3.5174691157094562e-12 -1.7890572475081128e-10  1.9999999997188499e+02 3.7198427547832189e-11 -7.1347137998107702e-11  1.9999999997178085e+02 -1.8346900258520221e-11 -2.0491852210480718e-10  1.9999999997184162e+02 -1.7277495509705859e-11 -8.3462126130484899e-11  1.9999999997027447e+02 -6.5231971790100546e-11 -8.1768613127205760e-11  1.9999999996946008e+02 -1.3272345419635059e-11 -1.5460371610745134e-10  1.9999999996952960e+02 2.0179922500474216e-11 -4.8668990265051161e-11  1.9999999996972394e+02 4.0837661946564383e-11 8.7742310133895068e-11  1.9999999997029968e+02 -3.7012112665190435e-10 -6.9191546188435139e-11  1.9999999996955540e+02 2.1446946671030050e-11 -4.7219824965513324e-11  1.9999999996969700e+02 4.3368595023627797e-10 7.2127917178922792e-11  1.9999999996961793e+02 -6.7337055248985368e-11 5.5877022032946719e-12  1.9999999997021237e+02 -2.9404308592022653e-11 -1.6639368498769994e-10  1.9999999997029269e+02 1.9294020880231330e-11 -5.5856113475185458e-11  1.9999999997020228e+02 -6.6712373992964307e-11 -1.9275503181421833e-10  1.9999999997031952e+02 1.5657029858130452e-11 -7.0418628959330532e-11  1.9999999996878128e+02 -8.4022988427136000e-11 -6.6251362212289224e-11  1.9999999996794671e+02 -4.3936187257824075e-11 -9.0728480736958506e-11  1.9999999996805317e+02 1.3827578207571965e-11 -4.8936505085678508e-11  1.9999999996820935e+02 5.0013732400423510e-11 9.5823126413470268e-11  1.9999999996877398e+02 -3.3507177999056898e-10 -2.7849620988496319e-11  1.9999999996805181e+02 6.7408904726398507e-11 -2.1119979563546197e-11  1.9999999996817914e+02 4.3091423574186434e-10 6.2595976242745120e-11  1.9999999996812286e+02 -9.2203509338240555e-11 -3.6274779421649153e-11  1.9999999996874828e+02 -2.3717329734509610e-11 -2.0004745547039498e-10  1.9999999996883312e+02 2.8559833211223856e-11 -8.9677029485525414e-11  1.9999999996867402e+02 2.6899242261531278e-11 -2.0232749257179569e-10  1.9999999996882119e+02 1.6174937843835559e-11 -6.3830022225277923e-11  1.9999999996731563e+02 -2.8994546528177558e-11 -8.4267931129684896e-11  1.9999999996628466e+02 -3.6051970758083619e-11 1.3534170781757762e-11  1.9999999996645178e+02 -6.0158376474756720e-12 -8.0210261064175850e-12  1.9999999996661850e+02 1.6966532891637394e-11 3.6980399601706185e-11  1.9999999996734542e+02 -2.8414667910624959e-10 -2.7635535335824797e-11  1.9999999996647733e+02 -2.3818092140307344e-11 -2.1552078299424997e-11  1.9999999996657496e+02 1.8365605149814511e-10 2.4150507705718598e-11  1.9999999996640693e+02 7.6293461259580531e-12 -8.0482524867937982e-12  1.9999999996732276e+02 -4.8043374126977638e-12 -1.8167603871598222e-10  1.9999999996734746e+02 5.5551624597433521e-12 -1.0881459276446071e-10  1.9999999996727072e+02 8.0253637002602854e-13 -1.5440468246675417e-10  1.9999999996736665e+02 6.9188082505651387e-12 -1.0107248501792063e-10  1.9999999997184335e+02 -1.0518337936065399e-10 -7.8980118686276882e-11  1.9999999997098570e+02 -7.7140567469437963e-11 -1.4066192609593196e-10  1.9999999997116464e+02 1.0339911732203856e-11 -8.4910675175776594e-11  1.9999999997122367e+02 9.1531477010268542e-11 5.9769840202827157e-11  1.9999999997110987e+02 6.1188639077614965e-13 -3.6079456015837784e-11  1.9999999997181922e+02 -7.7039485632326516e-11 -1.5383456932541414e-10  1.9999999997186436e+02 -1.2174548645533417e-10 -9.2648988281069854e-11  1.9999999997267196e+02 -1.7115105935976840e-10 -1.9720218459006497e-10  1.9999999997266247e+02 1.3843739261429725e-12 -1.0201377390268579e-10  1.9999999997264922e+02 1.2488610000767243e-10 1.2276298208739647e-10  1.9999999997188789e+02 4.0085963417457157e-12 -1.7827786740027855e-11  1.9999999997030045e+02 -5.0484922444409713e-11 -9.9443294940407624e-11  1.9999999996945022e+02 -8.5535942144669798e-11 -1.1869900493684567e-10  1.9999999996959787e+02 -6.6478389119507047e-12 -4.5234123278355166e-11  1.9999999996970294e+02 9.7863286071740582e-11 4.7496044249231633e-11  1.9999999996961770e+02 -7.0721888949445521e-12 -3.6096071017463021e-11  1.9999999997027734e+02 -9.5109517006746466e-11 -1.5650286372092945e-10  1.9999999997026654e+02 -1.4414734800164393e-10 -1.0596397045748028e-10  1.9999999997035312e+02 -2.4044874802740973e-12 -7.5412391208626704e-11  1.9999999996878955e+02 -6.2504690468299396e-11 -8.1170036806369625e-11  1.9999999996796436e+02 -4.5583906715902718e-11 -1.1460766333649393e-10  1.9999999996810240e+02 -1.8361827556959027e-11 -3.1341894750211734e-11  1.9999999996815617e+02 7.6399746985972715e-11 6.1809377047505344e-11  1.9999999996809905e+02 3.5613043985534080e-12 -2.3888995236844362e-11  1.9999999996876625e+02 -5.9042965964518181e-11 -1.9036116375823483e-10  1.9999999996876272e+02 -1.6605444257462123e-10 -1.2501539378651137e-10  1.9999999996887161e+02 1.8531090530283666e-12 -2.7382619231838825e-11  1.9999999996730361e+02 -9.9673650177249920e-11 -9.5460068238980285e-11  1.9999999996641165e+02 4.1625551507796573e-12 -1.7438954149482006e-11  1.9999999996642975e+02 2.5446545095301145e-11 4.0500126887491384e-12  1.9999999996660171e+02 3.7803771680060912e-11 2.7829084678048004e-11  1.9999999996645118e+02 -1.4509098368936752e-11 2.7617512097768721e-11  1.9999999996731134e+02 -8.0683117338416671e-11 -1.7765275571507484e-10  1.9999999996730958e+02 -1.4840312092187934e-10 -1.0834423691874480e-10  1.9999999996733982e+02 4.5054214737155283e-12 -3.5160656231692937e-12  1.9999999997100886e+02 -1.4087489018845823e-10 -1.3237690404241189e-10  1.9999999997183886e+02 -8.6797387132904813e-11 -8.1769671546866955e-11  1.9999999997114571e+02 9.0430103491127725e-12 -3.1682844018588649e-11  1.9999999997123217e+02 9.3351388910101752e-11 4.7174868906263489e-11  1.9999999997111163e+02 -4.5157294749389935e-11 -5.0207498202642826e-11  1.9999999997180333e+02 -1.3631916206253782e-10 -1.4724404333180964e-10  1.9999999997182709e+02 -1.4333484035344418e-10 -1.1588507962358269e-10  1.9999999997265442e+02 -4.0848230320771626e-11 -3.9147644966999157e-11  1.9999999997267028e+02 -1.9807183845237596e-10 -1.6902409033330741e-10  1.9999999997262964e+02 9.7940296883280444e-11 1.1470295226442567e-10  1.9999999997184449e+02 -1.1864470705078416e-11 -2.1670088612880705e-11  1.9999999997267545e+02 -4.8558444798192887e-11 -5.6874400466661736e-11  1.9999999997027521e+02 -1.1597368895270328e-10 -1.0126923223475608e-10  1.9999999996943717e+02 -1.1033357670988118e-10 -1.0228874764882267e-10  1.9999999996961981e+02 -2.7383364024770188e-11 -5.1593683040470548e-11  1.9999999996971920e+02 9.0798343327050276e-11 6.6576610445594647e-11  1.9999999996964684e+02 -4.5485020429592487e-11 -4.5555107442577890e-11  1.9999999997029224e+02 -1.2199042141560489e-10 -2.3964698411754501e-10  1.9999999997024611e+02 -1.8262050752018114e-10 -1.0942762869988544e-10  1.9999999997034726e+02 2.1906518834423457e-13 -3.4571760082840708e-11  1.9999999996878506e+02 -9.6546249343483006e-11 -1.0161491240066228e-10  1.9999999996868470e+02 -2.0802020351754064e-10 -2.1275655623879757e-11  1.9999999996794139e+02 -1.3798527264061121e-10 -1.0432822663373918e-10  1.9999999996804780e+02 -6.7510437059831791e-11 6.6677108786676351e-11  1.9999999996817820e+02 7.2637780652669471e-11 3.8170675391819565e-12  1.9999999996810894e+02 -4.9595335459478788e-11 -4.4609427104596058e-11  1.9999999996816845e+02 7.5684267887547987e-11 5.5063269783191518e-11  1.9999999996810777e+02 -8.1452260509642894e-11 -3.8528075548289459e-11  1.9999999996872467e+02 -1.1913152620588765e-10 -1.7581600223352539e-10  1.9999999996871350e+02 -1.7130719190909981e-10 -1.0383462458604529e-10  1.9999999996879393e+02 -8.2400992200735071e-11 6.1128141176511857e-11  1.999999