<?xml version="1.0"?>
<VTKFile type="UnstructuredGrid"  version="0.1"  >
<UnstructuredGrid>
<Piece  NumberOfPoints="3819" NumberOfCells="18971">
<Points>
<DataArray  type="Float64"  NumberOfComponents="3"  format="ascii">25 27.5 32.5  25 28.75 33.75  25 28.75 32.5  23.75 28.75 33.75  25 30 32.5  25 30 33.75  25 30 35  25 27.5 33.75  25 27.5 35  25 28.75 35  26.25 28.75 33.75  26.25 30 33.75  26.25 30 35  27.5 30 35  26.25 31.25 33.75  26.25 31.25 35  27.5 31.25 35  27.5 32.5 35  25 31.25 35  25 32.5 35  26.25 32.5 35  26.25 32.5 33.75  26.25 33.75 35  26.25 33.75 33.75  27.5 33.75 35  27.5 35 35  26.25 35 35  26.25 35 33.75  27.5 36.25 35  26.25 36.25 35  26.25 36.25 33.75  27.5 37.5 35  26.25 31.25 36.25  27.5 31.25 36.25  27.5 32.5 36.25  27.5 32.5 37.5  26.25 32.5 36.25  26.25 33.75 36.25  27.5 33.75 36.25  27.5 35 36.25  27.5 35 37.5  27.5 33.75 37.5  26.25 33.75 37.5  26.25 35 36.25  27.5 36.25 36.25  26.25 36.25 36.25  27.5 37.5 36.25  27.5 37.5 37.5  27.5 36.25 37.5  27.5 33.75 38.75  26.25 33.75 38.75  27.5 35 38.75  27.5 35 40  26.25 35 38.75  27.5 36.25 38.75  26.25 36.25 38.75  32.5 25 25  32.5 25 26.25  32.5 23.75 26.25  31.25 23.75 26.25  32.5 25 27.5  32.5 23.75 27.5  31.25 23.75 27.5  30 25 25  31.25 25 26.25  31.25 25 25  30 25 27.5  31.25 25 27.5  30 25 26.25  35 22.5 27.5  35 23.75 27.5  33.75 23.75 27.5  33.75 23.75 26.25  35 25 27.5  33.75 25 27.5  33.75 25 26.25  27.5 25 25  27.5 26.25 26.25  27.5 26.25 25  26.25 26.25 26.25  26.25 26.25 25  27.5 27.5 25  27.5 27.5 26.25  27.5 27.5 27.5  27.5 25 26.25  27.5 25 27.5  27.5 26.25 27.5  25 25 27.5  26.25 26.25 27.5  26.25 25 27.5  25 27.5 27.5  26.25 27.5 27.5  28.75 26.25 26.25  28.75 26.25 25  28.75 25 25  30 26.25 26.25  30 26.25 25  30 27.5 25  30 27.5 26.25  30 27.5 27.5  28.75 25 26.25  30 26.25 27.5  28.75 26.25 27.5  28.75 25 27.5  28.75 27.5 26.25  28.75 27.5 25  28.75 27.5 27.5  31.25 26.25 26.25  32.5 26.25 26.25  32.5 26.25 27.5  32.5 27.5 27.5  31.25 26.25 27.5  31.25 27.5 27.5  31.25 27.5 26.25  33.75 26.25 26.25  33.75 25 25  35 25 25  35 26.25 26.25  35 25 26.25  35 26.25 27.5  35 27.5 27.5  33.75 26.25 27.5  33.75 27.5 27.5  36.25 26.25 26.25  36.25 25 26.25  36.25 25 25  37.5 25 25  37.5 26.25 26.25  37.5 25 26.25  37.5 25 27.5  37.5 26.25 27.5  37.5 27.5 27.5  36.25 26.25 27.5  36.25 25 27.5  36.25 27.5 27.5  38.75 26.25 26.25  38.75 25 26.25  38.75 25 25  40 25 25  40 26.25 26.25  40 25 26.25  40 25 27.5  40 26.25 27.5  40 27.5 27.5  38.75 26.25 27.5  38.75 25 27.5  38.75 27.5 27.5  41.25 26.25 26.25  41.25 25 26.25  41.25 25 25  42.5 25 25  42.5 26.25 26.25  42.5 25 26.25  42.5 25 27.5  42.5 26.25 27.5  42.5 27.5 27.5  41.25 26.25 27.5  41.25 25 27.5  41.25 27.5 27.5  43.75 26.25 26.25  43.75 26.25 27.5  43.75 27.5 27.5  45 27.5 27.5  28.75 28.75 26.25  30 28.75 26.25  30 28.75 27.5  30 30 27.5  28.75 28.75 27.5  27.5 28.75 26.25  27.5 28.75 27.5  27.5 30 27.5  28.75 30 27.5  31.25 28.75 26.25  31.25 28.75 27.5  32.5 28.75 27.5  32.5 30 27.5  31.25 30 27.5  27.5 25 28.75  27.5 23.75 28.75  26.25 23.75 28.75  27.5 25 30  26.25 25 28.75  25 25 30  26.25 25 30  26.25 23.75 30  30 25 28.75  30 23.75 28.75  28.75 23.75 28.75  30 25 30  30 23.75 30  28.75 23.75 30  28.75 25 28.75  28.75 25 30  32.5 25 28.75  32.5 23.75 28.75  31.25 23.75 28.75  32.5 25 30  32.5 22.5 30  32.5 23.75 30  31.25 23.75 30  31.25 25 28.75  31.25 25 30  35 23.75 28.75  33.75 23.75 28.75  35 25 28.75  35 25 30  35 22.5 28.75  35 22.5 30  35 23.75 30  33.75 23.75 30  33.75 22.5 30  33.75 25 28.75  33.75 25 30  36.25 23.75 28.75  36.25 23.75 27.5  36.25 22.5 27.5  37.5 22.5 27.5  37.5 23.75 28.75  37.5 23.75 27.5  37.5 25 28.75  37.5 25 30  36.25 22.5 28.75  37.5 22.5 28.75  37.5 22.5 30  37.5 23.75 30  36.25 23.75 30  36.25 22.5 30  36.25 25 28.75  36.25 25 30  38.75 23.75 28.75  38.75 22.5 28.75  38.75 23.75 30  38.75 22.5 30  40 22.5 30  40 23.75 30  40 25 30  38.75 23.75 27.5  38.75 25 28.75  40 25 28.75  38.75 25 30  26.25 26.25 28.75  27.5 26.25 28.75  27.5 27.5 28.75  27.5 27.5 30  27.5 26.25 30  26.25 26.25 30  26.25 27.5 28.75  25 27.5 30  26.25 27.5 30  28.75 26.25 28.75  30 26.25 28.75  30 27.5 28.75  30 27.5 30  30 26.25 30  28.75 26.25 30  28.75 27.5 28.75  28.75 27.5 30  31.25 26.25 28.75  32.5 26.25 28.75  32.5 27.5 28.75  32.5 27.5 30  32.5 26.25 30  31.25 26.25 30  31.25 27.5 28.75  31.25 27.5 30  33.75 26.25 28.75  35 26.25 28.75  35 27.5 28.75  35 27.5 30  35 26.25 30  33.75 26.25 30  33.75 27.5 28.75  33.75 27.5 30  36.25 26.25 28.75  37.5 26.25 28.75  37.5 27.5 28.75  37.5 27.5 30  37.5 26.25 30  36.25 26.25 30  36.25 27.5 28.75  36.25 27.5 30  38.75 26.25 28.75  40 26.25 28.75  40 27.5 28.75  40 27.5 30  40 26.25 30  38.75 26.25 30  38.75 27.5 28.75  38.75 27.5 30  41.25 26.25 28.75  42.5 26.25 28.75  42.5 27.5 28.75  42.5 27.5 30  41.25 25 28.75  42.5 25 28.75  42.5 25 30  42.5 26.25 30  41.25 26.25 30  41.25 25 30  41.25 27.5 28.75  41.25 27.5 30  43.75 26.25 28.75  43.75 25 28.75  43.75 26.25 30  43.75 25 30  45 25 30  45 26.25 30  45 27.5 30  43.75 27.5 28.75  45 27.5 28.75  43.75 27.5 30  26.25 28.75 28.75  26.25 28.75 27.5  27.5 28.75 28.75  27.5 30 28.75  27.5 30 30  27.5 28.75 30  26.25 28.75 30  25 30 30  26.25 30 30  28.75 28.75 28.75  30 28.75 28.75  30 30 28.75  30 30 30  30 28.75 30  28.75 28.75 30  28.75 30 28.75  28.75 30 30  31.25 28.75 28.75  32.5 28.75 28.75  32.5 30 28.75  32.5 30 30  32.5 28.75 30  31.25 28.75 30  31.25 30 28.75  31.25 30 30  33.75 28.75 28.75  33.75 28.75 27.5  35 28.75 28.75  35 28.75 27.5  35 30 27.5  35 30 28.75  35 30 30  35 28.75 30  33.75 28.75 30  33.75 30 28.75  33.75 30 27.5  33.75 30 30  36.25 28.75 28.75  36.25 28.75 27.5  37.5 28.75 28.75  37.5 28.75 27.5  37.5 30 27.5  37.5 30 28.75  37.5 30 30  37.5 28.75 30  36.25 28.75 30  36.25 30 28.75  36.25 30 27.5  36.25 30 30  38.75 28.75 28.75  38.75 28.75 27.5  40 28.75 28.75  40 28.75 27.5  40 30 27.5  40 30 28.75  40 30 30  40 28.75 30  38.75 28.75 30  38.75 30 28.75  38.75 30 27.5  38.75 30 30  41.25 28.75 28.75  41.25 28.75 27.5  42.5 28.75 28.75  42.5 28.75 27.5  42.5 30 27.5  42.5 30 28.75  42.5 30 30  42.5 28.75 30  41.25 28.75 30  41.25 30 28.75  41.25 30 27.5  41.25 30 30  43.75 28.75 28.75  43.75 28.75 27.5  45 28.75 28.75  45 28.75 27.5  45 30 27.5  45 30 28.75  45 30 30  45 28.75 30  43.75 28.75 30  43.75 30 28.75  43.75 30 27.5  43.75 30 30  46.25 28.75 28.75  46.25 27.5 28.75  46.25 27.5 27.5  47.5 27.5 27.5  47.5 28.75 28.75  47.5 27.5 28.75  47.5 27.5 30  47.5 28.75 30  47.5 30 30  46.25 28.75 30  46.25 27.5 30  46.25 30 30  46.25 30 28.75  48.75 28.75 28.75  48.75 27.5 28.75  48.75 27.5 27.5  50 27.5 27.5  50 28.75 28.75  50 27.5 28.75  50 27.5 30  50 28.75 30  50 30 30  48.75 28.75 30  48.75 27.5 30  48.75 30 30  28.75 31.25 28.75  30 31.25 28.75  30 31.25 30  30 32.5 30  28.75 31.25 30  27.5 31.25 28.75  27.5 31.25 30  27.5 32.5 30  28.75 32.5 30  31.25 31.25 28.75  31.25 31.25 27.5  32.5 31.25 28.75  32.5 31.25 27.5  32.5 32.5 27.5  32.5 32.5 28.75  32.5 32.5 30  32.5 31.25 30  31.25 31.25 30  31.25 32.5 30  33.75 31.25 28.75  33.75 31.25 27.5  35 31.25 28.75  35 31.25 27.5  35 32.5 27.5  35 32.5 28.75  35 32.5 30  35 31.25 30  33.75 31.25 30  33.75 32.5 28.75  33.75 32.5 27.5  33.75 32.5 30  36.25 31.25 28.75  36.25 31.25 27.5  37.5 31.25 28.75  37.5 31.25 27.5  37.5 32.5 27.5  37.5 32.5 28.75  37.5 32.5 30  37.5 31.25 30  36.25 31.25 30  36.25 32.5 28.75  36.25 32.5 27.5  36.25 32.5 30  38.75 31.25 28.75  40 31.25 28.75  40 31.25 30  40 32.5 30  38.75 31.25 30  38.75 32.5 30  38.75 32.5 28.75  41.25 31.25 28.75  42.5 31.25 28.75  42.5 31.25 30  42.5 32.5 30  41.25 31.25 30  41.25 32.5 30  43.75 31.25 28.75  45 31.25 28.75  45 31.25 30  45 32.5 30  43.75 31.25 30  43.75 32.5 30  46.25 31.25 28.75  46.25 31.25 30  47.5 31.25 30  47.5 32.5 30  46.25 32.5 30  33.75 33.75 28.75  35 33.75 28.75  35 33.75 30  35 35 30  33.75 33.75 30  36.25 33.75 28.75  37.5 33.75 28.75  37.5 33.75 30  37.5 35 30  36.25 33.75 30  36.25 35 30  38.75 33.75 28.75  38.75 33.75 30  40 33.75 30  40 35 30  38.75 35 30  27.5 25 31.25  27.5 23.75 31.25  26.25 23.75 31.25  27.5 25 32.5  26.25 25 31.25  30 25 31.25  30 23.75 31.25  28.75 23.75 31.25  30 25 32.5  28.75 25 31.25  28.75 25 32.5  32.5 23.75 31.25  31.25 23.75 31.25  32.5 25 31.25  32.5 25 32.5  32.5 22.5 31.25  32.5 22.5 32.5  32.5 23.75 32.5  31.25 25 31.25  31.25 25 32.5  33.75 23.75 31.25  35 23.75 31.25  35 25 31.25  35 25 32.5  33.75 25 31.25  33.75 25 32.5  36.25 23.75 31.25  37.5 23.75 31.25  37.5 25 31.25  37.5 25 32.5  36.25 25 31.25  36.25 25 32.5  38.75 23.75 31.25  40 23.75 31.25  40 25 31.25  40 25 32.5  38.75 25 31.25  38.75 25 32.5  41.25 23.75 31.25  41.25 23.75 30  41.25 25 31.25  42.5 25 31.25  42.5 25 32.5  41.25 25 32.5  26.25 26.25 31.25  27.5 26.25 31.25  27.5 27.5 31.25  27.5 27.5 32.5  27.5 26.25 32.5  26.25 26.25 32.5  26.25 27.5 31.25  26.25 27.5 32.5  28.75 26.25 31.25  30 26.25 31.25  30 27.5 31.25  30 27.5 32.5  30 26.25 32.5  28.75 26.25 32.5  28.75 27.5 31.25  28.75 27.5 32.5  31.25 26.25 31.25  32.5 26.25 31.25  32.5 27.5 31.25  32.5 27.5 32.5  32.5 26.25 32.5  31.25 26.25 32.5  31.25 27.5 31.25  31.25 27.5 32.5  33.75 26.25 31.25  35 26.25 31.25  35 27.5 31.25  35 27.5 32.5  35 26.25 32.5  33.75 26.25 32.5  33.75 27.5 31.25  33.75 27.5 32.5  36.25 26.25 31.25  37.5 26.25 31.25  37.5 27.5 31.25  37.5 27.5 32.5  37.5 26.25 32.5  36.25 26.25 32.5  36.25 27.5 31.25  36.25 27.5 32.5  38.75 26.25 31.25  40 26.25 31.25  40 27.5 31.25  40 27.5 32.5  40 26.25 32.5  38.75 26.25 32.5  38.75 27.5 31.25  38.75 27.5 32.5  41.25 26.25 31.25  42.5 26.25 31.25  42.5 27.5 31.25  42.5 27.5 32.5  42.5 26.25 32.5  41.25 26.25 32.5  41.25 27.5 31.25  41.25 27.5 32.5  43.75 26.25 31.25  45 26.25 31.25  45 27.5 31.25  45 27.5 32.5  43.75 25 31.25  45 25 31.25  45 25 32.5  45 26.25 32.5  43.75 26.25 32.5  43.75 25 32.5  43.75 27.5 31.25  43.75 27.5 32.5  46.25 26.25 31.25  46.25 25 31.25  46.25 26.25 32.5  46.25 25 32.5  47.5 25 32.5  47.5 26.25 32.5  47.5 27.5 32.5  46.25 27.5 32.
[...]
<PointData  Vectors="u"> 
<DataArray  type="Float64"  Name="u"  NumberOfComponents="3" format="ascii">1.9999999998244775e+02 -2.7863892500538355e-11 9.2225778067154432e-11  1.9999999998216063e+02 6.3535661846994565e-11 -1.5430749732659996e-10  1.9999999998226676e+02 1.0823932667007569e-10 1.7635297469517089e-11  1.9999999998312657e+02 8.4263848122903293e-12 -9.0032795030579797e-11  1.9999999998247046e+02 -4.5309135729242688e-11 1.0497035434248506e-10  1.9999999998223944e+02 -1.7951295912005187e-11 -6.6733713557281120e-11  1.9999999998247534e+02 -1.1373116517003067e-11 8.3786285261814241e-11  1.9999999998223157e+02 1.2941567479359620e-10 9.3985884031992072e-12  1.9999999998240526e+02 -6.5330298213732562e-11 5.7339603335715177e-11  1.9999999998233744e+02 5.7995740860780786e-12 -3.9262055163440510e-11  1.9999999998144227e+02 3.1736802157257898e-11 -5.8878488018955685e-11  1.9999999998133183e+02 -1.5140131720183650e-11 -6.3328227624396878e-11  1.9999999998146177e+02 5.3306736841969620e-12 -8.6881876073913472e-11  1.9999999998078425e+02 3.3462953849859868e-11 5.2888509677863238e-11  1.9999999998144332e+02 -7.5218330847215242e-11 -4.9154448104888836e-11  1.9999999998138583e+02 -7.7991221552393417e-11 -2.3079083877030842e-10  1.9999999998060659e+02 -2.4789429180707940e-11 4.9328900295207019e-11  1.9999999998079608e+02 9.5384260564984471e-11 3.4326753010813557e-11  1.9999999998236808e+02 -3.0046039809148057e-12 -1.6565242632688902e-11  1.9999999998244095e+02 7.4913911348899967e-11 8.0027950095877303e-11  1.9999999998149289e+02 -1.1749462576418039e-11 -2.5732726576465524e-11  1.9999999998143480e+02 -2.6005757489996908e-10 -6.6651239389855569e-11  1.9999999998144207e+02 -1.3421692229654921e-10 -2.5899443596689980e-10  1.9999999998148178e+02 -8.3219222757005377e-11 -7.2542822238625764e-11  1.9999999998057697e+02 -5.6897380948147930e-11 4.9667097650103027e-11  1.9999999998080696e+02 1.0709265852604281e-10 6.3255048750483619e-11  1.9999999998152302e+02 -8.5275130520158416e-12 -4.5852251589549047e-11  1.9999999998143900e+02 -2.5087029438980164e-10 -8.0956445670442430e-11  1.9999999998063092e+02 -3.6637408568735422e-11 1.0729840980528685e-10  1.9999999998139964e+02 -9.9870011057150580e-11 -1.6790538212958338e-10  1.9999999998142036e+02 -8.0048671117090659e-11 -8.5736825694510654e-11  1.9999999998076495e+02 9.4621592273591106e-11 6.1432552649447353e-11  1.9999999998144730e+02 -8.3585762001048169e-11 -1.1473461529189203e-10  1.9999999998055674e+02 -7.3417843709080798e-11 -1.0725295698036486e-10  1.9999999998063061e+02 6.9765290342064485e-12 2.2378504478942060e-11  1.9999999998083510e+02 9.6488446838247464e-11 8.9742798485919875e-11  1.9999999998144852e+02 -2.1678140244222409e-10 -1.3444629757549609e-10  1.9999999998143790e+02 -1.1085657723525804e-10 -9.6341206138372697e-11  1.9999999998059789e+02 -1.1309062095504599e-10 -1.1191531412537404e-10  1.9999999998065857e+02 2.7625277982675274e-11 -2.8643779315442807e-11  1.9999999998080713e+02 7.3430196400130005e-11 8.6632429999458852e-11  1.9999999998063421e+02 -6.3573812475626497e-11 2.8489482891279851e-11  1.9999999998148334e+02 -9.6474232819814160e-11 -1.1986600365597100e-10  1.9999999998144605e+02 -1.4360964595019527e-10 -1.1528778597881006e-10  1.9999999998057851e+02 -1.4103905828415626e-10 -1.2311877636883082e-10  1.9999999998144861e+02 -7.5684070216749601e-11 -9.6453338091396364e-11  1.9999999998063049e+02 2.4769326591404108e-11 -1.0653140492226453e-11  1.9999999998079892e+02 8.1875750686901258e-11 8.8216518417406788e-11  1.9999999998060903e+02 8.7156361116213088e-12 -1.3540551571405086e-11  1.9999999998058914e+02 -1.0893953314897281e-10 -1.1208132033878126e-10  1.9999999998146214e+02 -7.9320317832099131e-11 -9.7931364468647994e-11  1.9999999998062756e+02 -4.7056908853405588e-11 6.8899482274602750e-12  1.9999999998081168e+02 6.6706768683322430e-11 7.0278139132433135e-11  1.9999999998144884e+02 -1.8668600762456174e-10 -1.0933194960620296e-10  1.9999999998053505e+02 -1.2583733487855727e-10 -1.0922984276080933e-10  1.9999999998143946e+02 -1.0004509482458345e-10 -1.1431418009053436e-10  1.9999999997752519e+02 4.9039100563569638e-11 -1.7664643537364932e-12  1.9999999997738033e+02 -1.7102310966097496e-11 -6.9422893380470793e-12  1.9999999997720266e+02 1.8157200714535497e-11 -8.4573735205680840e-11  1.9999999997816860e+02 -6.2108258020802735e-11 -1.0871819249449188e-10  1.9999999997753585e+02 4.9790676348362881e-11 1.2174489418620790e-10  1.9999999997746863e+02 -8.1684247929952758e-12 4.1957365335689125e-11  1.9999999997810045e+02 7.8821161531743192e-11 -9.0529060595484127e-11  1.9999999997915870e+02 1.0655458795649589e-10 2.2660507199011504e-11  1.9999999997812824e+02 -1.2423403772218243e-10 -1.0266296657219788e-10  1.9999999997818671e+02 -7.9381850211139942e-11 1.0381748299514604e-10  1.9999999997914932e+02 7.0316754217205502e-11 1.1613853082344058e-10  1.9999999997822175e+02 7.3141405341977076e-11 -6.3965806724960265e-11  1.9999999997906332e+02 9.3284867800027848e-12 -4.7044149165954633e-11  1.9999999997592496e+02 -5.5905015834201562e-11 5.8602970733589332e-11  1.9999999997563353e+02 2.6227481242154012e-11 -2.2897103033586833e-11  1.9999999997650414e+02 3.6010810306035166e-12 -9.7930380192829570e-11  1.9999999997658273e+02 -9.4380255622145906e-11 -2.3992768669515459e-11  1.9999999997592820e+02 5.4429825575050251e-11 4.7285380973425513e-11  1.9999999997656644e+02 3.5918218852684319e-11 -8.2618110935803918e-11  1.9999999997652043e+02 -2.7051747568054081e-10 -1.8784271066337357e-11  1.9999999998069200e+02 1.0202298613621119e-10 2.8795171118239595e-11  1.9999999998066733e+02 -2.2050891005105821e-10 -2.0138138257339009e-10  1.9999999998069586e+02 -7.0695038911852181e-11 4.9440034913949067e-12  1.9999999998149056e+02 -5.0743603635232359e-11 -9.0799478689037775e-11  1.9999999998143767e+02 -1.8126936679388881e-10 1.4455718456860165e-11  1.9999999998066076e+02 1.1823541616712782e-10 7.4227456187043263e-12  1.9999999998061872e+02 -6.1169707581230671e-11 -2.6561404368284460e-11  1.9999999998067591e+02 1.3466229344740217e-10 8.2785987140518983e-11  1.9999999998069200e+02 -9.9171484103807440e-11 -8.5344766835984242e-11  1.9999999998070237e+02 1.0453462269396689e-10 1.2282031796879137e-10  1.9999999998072030e+02 -7.6848898502422171e-11 -8.5354029482781600e-11  1.9999999998245454e+02 8.7762115962136153e-11 1.3031682855810140e-10  1.9999999998143565e+02 -8.2115516600001086e-11 -9.8020933395105460e-11  1.9999999998147115e+02 -9.8093618400232156e-11 -4.1282901306272442e-11  1.9999999998243703e+02 1.0832389147182187e-10 4.8904849980095413e-11  1.9999999998147564e+02 -1.1828770068161893e-10 2.6643718590693477e-11  1.9999999997977980e+02 -7.2607254672770652e-11 -9.3668221479622996e-11  1.9999999997969229e+02 -1.8490668186514378e-10 -5.2610228301055391e-11  1.9999999997980680e+02 -1.2567802224483528e-10 -1.5881389956053653e-12  1.9999999997891513e+02 -1.2204737512623828e-10 -8.7726055858617076e-11  1.9999999997894443e+02 -2.7981706850493127e-11 9.1073365799803221e-11  1.9999999997912118e+02 7.2284112954370776e-11 1.5057395396022841e-11  1.9999999997905741e+02 -1.2689724422736230e-11 4.1815727817113511e-13  1.9999999997914722e+02 7.8481720714635369e-11 6.9113065648574559e-11  1.9999999997974814e+02 -1.3872577191488873e-10 -1.0025438407086428e-10  1.9999999997905758e+02 1.8989302180339838e-11 -2.4237750174654532e-11  1.9999999997975826e+02 -1.2856641469613743e-10 -1.3456270516306734e-10  1.9999999997982110e+02 -2.3370218897704011e-11 -3.0756601632759372e-11  1.9999999997978952e+02 -2.2040431793134019e-10 -1.0113893965170700e-10  1.9999999997986816e+02 -9.5428692022687724e-11 6.0244069779470418e-11  1.9999999997982886e+02 -3.3181240503965980e-11 1.5175681986230572e-11  1.9999999997812262e+02 -9.9056273923679418e-11 -6.0253893256203017e-11  1.9999999997719928e+02 -7.8323356116549328e-11 1.0302405118848523e-11  1.9999999997740363e+02 -1.1970313325110879e-11 -3.3473993793663997e-11  1.9999999997750982e+02 9.7817081853639516e-11 3.9539799089521221e-11  1.9999999997810693e+02 -1.0300142574056149e-10 -1.5059937722681414e-10  1.9999999997818904e+02 2.3323739067402625e-11 -3.9752960114540987e-11  1.9999999997814041e+02 -2.1256813472904550e-10 -9.5233724925754093e-12  1.9999999997655127e+02 -4.0943733848362103e-11 -6.6911224489365531e-11  1.9999999997659188e+02 2.2035843589710898e-11 1.5561187685624013e-10  1.9999999997587696e+02 4.6336151344774430e-11 1.8597729247842854e-11  1.9999999997567016e+02 -9.7571268229473706e-11 3.6411396394592783e-11  1.9999999997579459e+02 4.8338193939662463e-11 1.5335768474487813e-11  1.9999999997571524e+02 -5.0213643576598495e-11 3.6032253887012679e-11  1.9999999997591070e+02 1.2694932371613383e-10 1.7102798750188849e-11  1.9999999997649132e+02 -1.2602576437127042e-10 -2.1208829670082636e-10  1.9999999997660709e+02 -9.3469897534435448e-11 1.4026702318031127e-11  1.9999999997495047e+02 -7.2019800398802399e-11 3.4861979663901675e-11  1.9999999997484687e+02 2.5730537922250568e-12 3.3487188030355368e-11  1.9999999997495470e+02 6.1797028874668663e-11 2.6127524792617407e-11  1.9999999997431829e+02 3.3893338121861986e-11 5.5946621762956054e-11  1.9999999997394022e+02 -9.4496224085429832e-11 -5.5253251666178701e-11  1.9999999997409927e+02 4.5609923495578709e-11 1.4436278484445841e-11  1.9999999997434887e+02 1.3073437700137049e-11 2.7918344830090695e-11  1.9999999997425058e+02 -2.0179936116179731e-11 -5.4666396360265847e-11  1.9999999997436237e+02 1.2038676927270312e-10 -2.1202564396505384e-12  1.9999999997481228e+02 -2.0729250830388932e-10 -3.6520812885752771e-11  1.9999999997496133e+02 -1.1080130899688404e-10 7.9666769889401691e-11  1.9999999997496866e+02 -1.0600798041748100e-10 7.3330278236554028e-12  1.9999999997336135e+02 -6.5796416233752860e-11 -3.1826147207019707e-11  1.9999999997323377e+02 -8.2184181579118308e-11 -2.0174875985474947e-10  1.9999999997342175e+02 1.0280761663196126e-11 2.2251709572014152e-11  1.9999999997276561e+02 5.5333639445519683e-11 5.4155077275750983e-11  1.9999999997246783e+02 -7.2474678947635877e-11 -5.4909595083309754e-11  1.9999999997261443e+02 4.8865190305845001e-11 -7.1755996775886789e-11  1.9999999997277629e+02 -1.3261752034500738e-11 8.0446857320934671e-11  1.9999999997261816e+02 2.3281997160084056e-11 -3.4415660000084080e-11  1.9999999997274082e+02 1.0023386740742648e-10 -2.8986467208354688e-12  1.9999999997333447e+02 -6.9603268365473866e-11 -1.8094725078705574e-10  1.9999999997338287e+02 7.5523437454412511e-11 -1.2112054059341916e-10  1.9999999997341752e+02 -6.2193204288475150e-11 1.3930197310893870e-11  1.9999999997179950e+02 -5.1385625187360400e-11 -6.6710710569908176e-11  1.9999999997166987e+02 -5.5145471951099695e-11 -1.7902771107332062e-10  1.9999999997186859e+02 3.1790306782561660e-11 -4.5237739886974181e-11  1.9999999997115006e+02 5.8136573214696607e-11 1.7119298520903937e-11  1.9999999997084836e+02 -7.1555970195708189e-11 -1.0151583996291954e-10  1.9999999997105698e+02 3.1999819571655149e-11 -1.1706789519075149e-11  1.9999999997113471e+02 -2.5101210908314413e-11 2.6439314861422325e-11  1.9999999997108148e+02 -1.2262716257840300e-11 -5.4600795830534324e-11  1.9999999997115589e+02 1.0716930150507275e-10 9.9961967718988049e-12  1.9999999997172526e+02 -1.1876684875304461e-10 -2.1071913683399140e-10  1.9999999997183426e+02 3.3253089124201002e-11 -7.3357857316651617e-11  1.9999999997184614e+02 -5.7315918651231094e-11 3.6601319424817913e-11  1.9999999997022599e+02 -1.7979874115380572e-12 -6.7115429662201974e-11  1.9999999997020893e+02 1.5200267634225020e-11 -2.5686373301951659e-10  1.9999999997030113e+02 -8.3263302837067940e-11 1.0187601801838311e-11  1.9999999996964689e+02 6.8548015515066558e-11 7.1515226875917142e-12  1.9999999997981152e+02 -8.5284815886229801e-11 -3.1190100790784618e-11  1.9999999997884825e+02 -9.9598370075114100e-11 -2.1823551977466389e-11  1.9999999997905414e+02 -4.5177549348938600e-11 -3.7727234305943310e-11  1.9999999997911971e+02 8.2094658152713540e-11 2.5056735182190143e-11  1.9999999997986538e+02 -1.2657375761294174e-10 -1.8689753436383082e-10  1.9999999998082208e+02 -9.0273181591300661e-11 -2.8046166549249923e-11  1.9999999998080477e+02 -4.3066504263809040e-11 -1.3111596734301698e-10  1.9999999998063490e+02 1.1537751641237086e-10 6.0498356638489540e-11  1.9999999997983758e+02 -5.8985163678227590e-11 1.1563438575379404e-10  1.9999999997818443e+02 -8.3443885969684366e-11 8.7380505007615662e-12  1.9999999997814177e+02 -1.1733152456379935e-10 -2.2368131509006168e-10  1.9999999997732155e+02 1.0740685418863067e-11 3.1660970378264041e-11  1.9999999997750612e+02 8.9105020387914049e-11 1.6465688970469078e-12  1.9999999997823031e+02 -1.4571459823496087e-10 1.5938372483286842e-12  1.9999999998069160e+02 -8.0822760972307786e-11 -1.4768646500183856e-11  1.9999999998065528e+02 -1.7894217483857738e-10 -1.8874631427414652e-10  1.9999999998144770e+02 -7.4259519245190755e-11 -4.7717417476387273e-11  1.9999999998069538e+02 9.4753366707069658e-11 9.0707047209466233e-11  1.9999999998142610e+02 -9.5495645413000662e-11 -8.7790468213911931e-11  1.9999999998244368e+02 6.3681405327952385e-11 5.2870084066678271e-11  1.9999999998150145e+02 -5.7721060717600384e-11 -5.9989098417778762e-11  1.9999999998140876e+02 -1.1067940231151455e-10 -5.7254268942208805e-11  1.9999999997896671e+02 5.9087984542884180e-11 -2.7292925043048381e-11  1.9999999997896791e+02 -3.5831695100916161e-11 -1.3773591824654215e-10  1.9999999997979231e+02 -1.0310748759892286e-10 -8.5777263755014523e-11  1.9999999997912485e+02 1.0068434264284726e-10 8.5051281537068586e-11  1.9999999997903552e+02 -1.3618288233531349e-11 6.6630643592000992e-12  1.9999999997976215e+02 -9.5063096923388151e-11 -1.6965437776720287e-10  1.9999999997975758e+02 -1.5402883061477655e-10 -8.6889243320397391e-11  1.9999999997984000e+02 -8.4182188961508469e-12 -8.6998325986872207e-12  1.9999999997732203e+02 2.3262179305198155e-11 -3.0788970350649582e-11  1.9999999997733480e+02 9.6134039391061804e-11 -1.0246557510266023e-10  1.9999999997814544e+02 2.8644520829088820e-11 -7.8989247650073516e-11  1.9999999997753520e+02 1.5146495328166692e-11 8.7420503719508625e-11  1.9999999997751314e+02 -3.9416719909952386e-11 9.9607331450293379e-11  1.9999999997742131e+02 4.7409218798237112e-12 3.5163739033541118e-11  1.9999999997816388e+02 -2.9615247475358416e-11 -2.2256758124592103e-10  1.9999999997805912e+02 4.0401924596903614e-11 -2.0090269058350095e-10  1.9999999997822050e+02 -1.6256265941989171e-11 2.1601802537961627e-11  1.9999999997553880e+02 2.3796128520631170e-11 -1.0301993883491650e-10  1.9999999997648956e+02 1.6332195364882604e-11 -8.8596631127977194e-11  1.9999999997583524e+02 -3.2249363094124170e-11 -6.0093299081286141e-11  1.9999999997593449e+02 2.4672453417580233e-11 1.2771251635277821e-10  1.9999999997574858e+02 5.0366363634172561e-11 3.0016279959811447e-12  1.9999999997592391e+02 -9.3951028369515947e-11 1.1022764602821546e-10  1.9999999997581031e+02 -2.0381191347909898e-11 4.4906644013036998e-11  1.9999999997646916e+02 7.9073627094155421e-11 -1.6590942835640667e-10  1.9999999997656971e+02 8.9616073714946406e-11 -3.4515756485558710e-11  1.9999999997639716e+02 -1.3054175401830392e-11 -2.3568093948947783e-10  1.9999999997651599e+02 3.6847762942351258e-11 -3.5854694955165447e-11  1.9999999997494487e+02 -7.0647661146349082e-11 -7.6274831276153539e-11  1.9999999997484466e+02 -1.5626351923390558e-12 -7.3667925016642331e-11  1.9999999997499600e+02 8.9877438560518339e-11 3.5527318173489516e-11  1.9999999997425559e+02 -2.9886223620186946e-11 1.8496578747269097e-11  1.9999999997412158e+02 1.2138671383994271e-10 -9.9954852110801254e-11  1.9999999997418067e+02 1.0120004564529218e-11 2.8481882406406439e-11  1.9999999997416467e+02 2.5897123616746061e-11 -6.2202803806469210e-11  1.9999999997432136e+02 -2.2088671718705706e-12 1.0116142402319567e-10  1.9999999997487126e+02 4.9051299869997137e-11 -1.2477384017783759e-10  1.9999999997413286e+02 8.0326319638293826e-11 -1.9266087531600905e-12  1.9999999997430731e+02 -1.0230729392157320e-10 1.2945216332362249e-10  1.9999999997426755e+02 3.2188985013546786e-12 -7.8895766995705924e-12  1.9999999997486179e+02 1.1381824512941835e-10 -1.0365722699011554e-10  1.9999999997496732e+02 5.2255532608879211e-11 -2.2187102273731727e-11  1.9999999997486017e+02 -2.1074598678317514e-10 -1.0844815838360089e-10  1.9999999997495777e+02 7.5898621125923830e-12 -7.4526663798939419e-11  1.9999999997343923e+02 -7.0916679685457163e-12 -7.5631590073592180e-11  1.9999999997320722e+02 -4.0173877395617071e-11 3.6670541815559517e-11  1.9999999997331187e+02 -3.1125692363931075e-11 -1.6482509985633220e-10  1.9999999997339432e+02 -2.0494471255097475e-12 -8.6675994492204278e-11  1.9999999997269859e+02 -2.4816669898345143e-13 9.7681365425326628e-11  1.9999999997251680e+02 -2.3877695850574841e-11 -3.6865470136843901e-11  1.9999999997277399e+02 -6.3115160700762622e-12 6.9715181683183095e-11  1.9999999997325412e+02 2.0391801659199140e-10 2.8983077583542255e-11  1.9999999997321962e+02 -4.9427609198307169e-12 -1.9937543393840472e-10  1.9999999997260417e+02 4.1762729786262745e-11 -9.5620906228930372e-11  1.9999999997337957e+02 -6.9062796179935279e-12 -1.2318541750760546e-10  1.9999999998148476e+02 -7.6917006131680440e-11 -4.9777843716949959e-11  1.9999999998065934e+02 -2.1359950810265597e-10 -1.8938185054611978e-10  1.9999999998070956e+02 -1.2045513025319927e-10 -1.6740231808524419e-11  1.9999999998069310e+02 1.0018552443011640e-10 1.3299343318162770e-10  1.9999999998069691e+02 -1.7041461792430555e-11 -1.0303512789547846e-10  1.9999999998143105e+02 -9.8347127204754606e-11 -3.8278604652447320e-11  1.9999999998141638e+02 -1.0982819443288704e-10 -8.6207531613552826e-11  1.9999999998246588e+02 2.8905341876135694e-11 6.2652475038120837e-11  1.9999999998149130e+02 -5.7973278762756077e-11 -2.6439488064956477e-11  1.9999999997977858e+02 -8.0479103277857188e-11 -5.6294807010498560e-11  1.9999999997887608e+02 -9.4947660693420983e-11 -9.7090477948258627e-11  1.9999999997902415e+02 -2.2490458261408594e-11 -4.9454932666109871e-12  1.9999999997909205e+02 7.0535973063708460e-11 8.6853615213081288e-11  1.9999999997902356e+02 -3.1281787802322948e-11 2.2550131831261731e-11  1.9999999997979458e+02 -9.3292413225164003e-11 -1.7046441604273690e-10  1.9999999997980890e+02 -2.1407871943421044e-10 -9.6570723724245294e-11  1.9999999997986092e+02 -2.7749095569507802e-11 2.3427957018063101e-11  1.9999999997814533e+02 -1.1842403432077318e-10 -8.0032191833893544e-11  1.9999999997723845e+02 -1.2456738738915752e-10 -1.1772205016935511e-10  1.9999999997738448e+02 -1.9231207067699049e-11 -2.9277423936240667e-11  1.9999999997749973e+02 8.4620920667984988e-11 7.5098086773079225e-11  1.9999999997739542e+02 -6.7050596932274748e-11 -2.5543619601606758e-11  1.9999999997810110e+02 -1.1517972001167475e-10 -1.9185876454149544e-10  1.9999999997811062e+02 -1.4580531888287281e-10 -1.3458722221298196e-10  1.9999999997817477e+02 -3.1107433349172169e-11 -1.7789748102722284e-11  1.9999999997653748e+02 -9.0928227643429167e-11 -7.5429358938895150e-11  1.9999999997560866e+02 -1.1694902986302648e-10 -1.1641076017699941e-10  1.9999999997581213e+02 -4.7245869329354154e-11 -4.9894824802105480e-11  1.9999999997588270e+02 8.9121289441590550e-11 8.2872854239255698e-11  1.9999999997576452e+02 -5.4965457191095433e-11 -2.8476426872142024e-11  1.9999999997650872e+02 -1.3072874530119013e-10 -1.6523017807875317e-10  1.9999999997649897e+02 -2.0710535107110055e-10 -1.0395816312282421e-10  1.9999999997662502e+02 -6.1969672757705180e-12 9.6567197288724379e-13  1.9999999997490917e+02 -7.5506057722200599e-11 -8.3009065571504245e-11  1.9999999997408671e+02 -1.0750665538504806e-10 -1.2160313133255796e-10  1.9999999997421293e+02 -8.1382668132413231e-12 6.7840344400553397e-12  1.9999999997432681e+02 8.1184388917108895e-11 6.8725007754246429e-11  1.9999999997420545e+02 -1.9890670460434053e-11 -2.7713321277278759e-11  1.9999999997489542e+02 -1.2961030420343683e-10 -1.9749098018927255e-10  1.9999999997489240e+02 