<?xml version="1.0"?>
<VTKFile type="UnstructuredGrid"  version="0.1"  >
<UnstructuredGrid>
<Piece  NumberOfPoints="3964" NumberOfCells="18978">
<Points>
<DataArray  type="Float64"  NumberOfComponents="3"  format="ascii">37.5 0 10  38.75 1.25 11.25  38.75 0 11.25  38.75 0 10  40 0 10  40 1.25 11.25  40 0 11.25  40 0 12.5  40 1.25 12.5  40 2.5 12.5  37.5 0 11.25  37.5 0 12.5  38.75 1.25 12.5  38.75 0 12.5  41.25 1.25 11.25  41.25 0 11.25  41.25 1.25 12.5  41.25 0 12.5  42.5 0 12.5  42.5 1.25 12.5  42.5 2.5 12.5  41.25 2.5 12.5  38.75 1.25 13.75  40 1.25 13.75  40 2.5 13.75  40 2.5 15  38.75 0 13.75  40 0 13.75  40 0 15  40 1.25 15  37.5 0 13.75  37.5 0 15  38.75 1.25 15  38.75 0 15  41.25 1.25 13.75  42.5 1.25 13.75  42.5 2.5 13.75  42.5 2.5 15  41.25 0 13.75  42.5 0 13.75  42.5 0 15  42.5 1.25 15  41.25 1.25 15  41.25 0 15  41.25 2.5 13.75  41.25 2.5 15  43.75 1.25 13.75  43.75 1.25 12.5  43.75 0 12.5  45 0 12.5  45 1.25 13.75  45 1.25 12.5  45 2.5 12.5  45 2.5 13.75  45 2.5 15  43.75 0 13.75  45 0 13.75  45 0 15  45 1.25 15  43.75 1.25 15  43.75 0 15  43.75 2.5 13.75  43.75 2.5 12.5  43.75 2.5 15  46.25 1.25 13.75  46.25 1.25 12.5  46.25 0 12.5  47.5 0 12.5  47.5 1.25 13.75  47.5 1.25 12.5  47.5 2.5 12.5  47.5 2.5 13.75  47.5 2.5 15  46.25 0 13.75  47.5 0 13.75  47.5 0 15  47.5 1.25 15  46.25 1.25 15  46.25 0 15  46.25 2.5 13.75  46.25 2.5 12.5  46.25 2.5 15  48.75 1.25 13.75  48.75 1.25 12.5  48.75 0 12.5  50 0 12.5  50 1.25 13.75  50 1.25 12.5  50 2.5 12.5  50 2.5 13.75  50 2.5 15  48.75 0 13.75  50 0 13.75  50 0 15  50 1.25 15  48.75 1.25 15  48.75 0 15  48.75 2.5 13.75  48.75 2.5 12.5  48.75 2.5 15  41.25 3.75 13.75  41.25 3.75 12.5  42.5 3.75 13.75  42.5 3.75 12.5  42.5 5 12.5  42.5 5 13.75  42.5 5 15  42.5 3.75 15  41.25 3.75 15  40 3.75 12.5  40 5 12.5  41.25 5 13.75  41.25 5 12.5  40 3.75 13.75  40 3.75 15  41.25 5 15  43.75 3.75 13.75  45 3.75 13.75  45 3.75 15  45 5 15  43.75 3.75 15  43.75 5 15  43.75 5 13.75  46.25 3.75 13.75  47.5 3.75 13.75  47.5 3.75 15  47.5 5 15  46.25 3.75 15  46.25 5 15  48.75 3.75 13.75  50 3.75 13.75  50 3.75 15  50 5 15  48.75 3.75 15  48.75 5 15  41.25 6.25 13.75  42.5 6.25 13.75  42.5 6.25 15  42.5 7.5 15  41.25 6.25 15  40 7.5 15  41.25 7.5 15  41.25 7.5 13.75  43.75 6.25 13.75  43.75 6.25 15  45 6.25 15  45 7.5 15  43.75 7.5 15  41.25 8.75 15  41.25 8.75 13.75  42.5 8.75 15  42.5 10 15  40 10 15  41.25 10 15  38.75 1.25 16.25  40 1.25 16.25  40 2.5 16.25  40 2.5 17.5  38.75 0 16.25  40 0 16.25  40 0 17.5  40 1.25 17.5  37.5 0 16.25  37.5 0 17.5  38.75 0 17.5  41.25 1.25 16.25  42.5 1.25 16.25  42.5 2.5 16.25  42.5 2.5 17.5  41.25 0 16.25  42.5 0 16.25  42.5 0 17.5  42.5 1.25 17.5  41.25 1.25 17.5  41.25 0 17.5  41.25 2.5 16.25  41.25 2.5 17.5  43.75 1.25 16.25  45 1.25 16.25  45 2.5 16.25  45 2.5 17.5  43.75 0 16.25  45 0 16.25  45 0 17.5  45 1.25 17.5  43.75 1.25 17.5  43.75 0 17.5  43.75 2.5 16.25  43.75 2.5 17.5  46.25 1.25 16.25  47.5 1.25 16.25  47.5 2.5 16.25  47.5 2.5 17.5  46.25 0 16.25  47.5 0 16.25  47.5 0 17.5  47.5 1.25 17.5  46.25 1.25 17.5  46.25 0 17.5  46.25 2.5 16.25  46.25 2.5 17.5  48.75 1.25 16.25  50 1.25 16.25  50 2.5 16.25  50 2.5 17.5  48.75 0 16.25  50 0 16.25  50 0 17.5  50 1.25 17.5  48.75 1.25 17.5  48.75 0 17.5  48.75 2.5 16.25  48.75 2.5 17.5  41.25 3.75 16.25  42.5 3.75 16.25  42.5 5 16.25  42.5 5 17.5  42.5 3.75 17.5  41.25 3.75 17.5  41.25 5 16.25  40 3.75 16.25  40 3.75 17.5  40 5 17.5  41.25 5 17.5  43.75 3.75 16.25  45 3.75 16.25  45 5 16.25  45 5 17.5  45 3.75 17.5  43.75 3.75 17.5  43.75 5 16.25  43.75 5 17.5  46.25 3.75 16.25  47.5 3.75 16.25  47.5 5 16.25  47.5 5 17.5  47.5 3.75 17.5  46.25 3.75 17.5  46.25 5 16.25  46.25 5 17.5  48.75 3.75 16.25  50 3.75 16.25  50 5 16.25  50 5 17.5  50 3.75 17.5  48.75 3.75 17.5  48.75 5 16.25  48.75 5 17.5  42.5 6.25 16.25  41.25 6.25 16.25  42.5 7.5 16.25  42.5 7.5 17.5  42.5 6.25 17.5  41.25 6.25 17.5  41.25 7.5 16.25  40 6.25 17.5  40 6.25 16.25  40 7.5 17.5  41.25 7.5 17.5  40 7.5 16.25  43.75 6.25 16.25  45 6.25 16.25  45 7.5 16.25  45 7.5 17.5  45 6.25 17.5  43.75 6.25 17.5  43.75 7.5 16.25  43.75 7.5 17.5  46.25 6.25 16.25  46.25 6.25 15  47.5 6.25 16.25  47.5 6.25 15  47.5 7.5 15  47.5 7.5 16.25  47.5 7.5 17.5  47.5 6.25 17.5  46.25 6.25 17.5  46.25 7.5 16.25  46.25 7.5 15  46.25 7.5 17.5  48.75 6.25 16.25  48.75 6.25 15  50 6.25 16.25  50 6.25 15  50 7.5 15  50 7.5 16.25  50 7.5 17.5  50 6.25 17.5  48.75 6.25 17.5  48.75 7.5 16.25  48.75 7.5 15  48.75 7.5 17.5  41.25 8.75 16.25  42.5 8.75 16.25  42.5 10 16.25  42.5 10 17.5  42.5 8.75 17.5  41.25 8.75 17.5  41.25 10 16.25  40 10 17.5  41.25 10 17.5  40 10 16.25  43.75 8.75 16.25  43.75 8.75 15  45 8.75 16.25  45 8.75 15  45 10 15  45 10 16.25  45 10 17.5  45 8.75 17.5  43.75 8.75 17.5  43.75 10 16.25  43.75 10 15  43.75 10 17.5  46.25 8.75 16.25  47.5 8.75 16.25  47.5 8.75 17.5  47.5 10 17.5  46.25 8.75 17.5  46.25 10 17.5  46.25 10 16.25  48.75 8.75 16.25  50 8.75 16.25  50 8.75 17.5  50 10 17.5  48.75 8.75 17.5  48.75 10 17.5  40 11.25 16.25  40 11.25 15  38.75 11.25 16.25  38.75 11.25 15  40 12.5 15  40 12.5 16.25  40 12.5 17.5  40 11.25 17.5  38.75 12.5 16.25  41.25 11.25 16.25  41.25 11.25 15  42.5 11.25 16.25  42.5 11.25 15  42.5 12.5 15  42.5 12.5 16.25  42.5 12.5 17.5  42.5 11.25 17.5  41.25 11.25 17.5  41.25 12.5 16.25  41.25 12.5 15  41.25 12.5 17.5  43.75 11.25 16.25  45 11.25 16.25  45 11.25 17.5  45 12.5 17.5  43.75 11.25 17.5  43.75 12.5 17.5  43.75 12.5 16.25  46.25 11.25 16.25  46.25 11.25 17.5  47.5 11.25 17.5  47.5 12.5 17.5  46.25 12.5 17.5  40 13.75 16.25  38.75 13.75 16.25  40 13.75 17.5  40 15 17.5  38.75 13.75 17.5  38.75 15 17.5  41.25 13.75 16.25  42.5 13.75 16.25  42.5 13.75 17.5  42.5 15 17.5  41.25 13.75 17.5  41.25 15 17.5  43.75 13.75 16.25  43.75 13.75 17.5  45 13.75 17.5  45 15 17.5  43.75 15 17.5  41.25 1.25 18.75  42.5 1.25 18.75  42.5 2.5 18.75  42.5 2.5 20  41.25 0 18.75  42.5 0 18.75  42.5 0 20  42.5 1.25 20  40 0 18.75  40 0 20  41.25 1.25 20  41.25 0 20  41.25 2.5 18.75  40 1.25 20  40 2.5 20  41.25 2.5 20  40 2.5 18.75  43.75 1.25 18.75  45 1.25 18.75  45 2.5 18.75  45 2.5 20  43.75 0 18.75  45 0 18.75  45 0 20  45 1.25 20  43.75 1.25 20  43.75 0 20  43.75 2.5 18.75  43.75 2.5 20  46.25 1.25 18.75  47.5 1.25 18.75  47.5 2.5 18.75  47.5 2.5 20  46.25 0 18.75  47.5 0 18.75  47.5 0 20  47.5 1.25 20  46.25 1.25 20  46.25 0 20  46.25 2.5 18.75  46.25 2.5 20  48.75 1.25 18.75  50 1.25 18.75  50 2.5 18.75  50 2.5 20  48.75 0 18.75  50 0 18.75  50 0 20  50 1.25 20  48.75 1.25 20  48.75 0 20  48.75 2.5 18.75  48.75 2.5 20  40 3.75 18.75  38.75 3.75 18.75  40 5 18.75  40 5 20  40 3.75 20  38.75 3.75 20  41.25 3.75 18.75  42.5 3.75 18.75  42.5 5 18.75  42.5 5 20  42.5 3.75 20  41.25 3.75 20  41.25 5 18.75  41.25 5 20  43.75 3.75 18.75  45 3.75 18.75  45 5 18.75  45 5 20  45 3.75 20  43.75 3.75 20  43.75 5 18.75  43.75 5 20  46.25 3.75 18.75  47.5 3.75 18.75  47.5 5 18.75  47.5 5 20  47.5 3.75 20  46.25 3.75 20  46.25 5 18.75  46.25 5 20  48.75 3.75 18.75  50 3.75 18.75  50 5 18.75  50 5 20  50 3.75 20  48.75 3.75 20  48.75 5 18.75  48.75 5 20  41.25 6.25 18.75  42.5 6.25 18.75  42.5 7.5 18.75  42.5 7.5 20  42.5 6.25 20  41.25 6.25 20  41.25 7.5 18.75  40 6.25 18.75  40 6.25 20  40 7.5 20  41.25 7.5 20  40 7.5 18.75  43.75 6.25 18.75  45 6.25 18.75  45 7.5 18.75  45 7.5 20  45 6.25 20  43.75 6.25 20  43.75 7.5 18.75  43.75 7.5 20  46.25 6.25 18.75  47.5 6.25 18.75  47.5 7.5 18.75  47.5 7.5 20  47.5 6.25 20  46.25 6.25 20  46.25 7.5 18.75  46.25 7.5 20  48.75 6.25 18.75  50 6.25 18.75  50 7.5 18.75  50 7.5 20  50 6.25 20  48.75 6.25 20  48.75 7.5 18.75  48.75 7.5 20  41.25 8.75 18.75  42.5 8.75 18.75  42.5 10 18.75  42.5 10 20  42.5 8.75 20  41.25 8.75 20  41.25 10 18.75  40 10 20  41.25 10 20  40 10 18.75  43.75 8.75 18.75  45 8.75 18.75  45 10 18.75  45 10 20  45 8.75 20  43.75 8.75 20  43.75 10 18.75  43.75 10 20  46.25 8.75 18.75  47.5 8.75 18.75  47.5 10 18.75  47.5 10 20  47.5 8.75 20  46.25 8.75 20  46.25 10 18.75  46.25 10 20  48.75 8.75 18.75  50 8.75 18.75  50 10 18.75  50 10 20  50 8.75 20  48.75 8.75 20  48.75 10 18.75  48.75 10 20  40 11.25 18.75  38.75 11.25 18.75  40 12.5 18.75  40 12.5 20  40 11.25 20  38.75 12.5 18.75  41.25 11.25 18.75  42.5 11.25 18.75  42.5 12.5 18.75  42.5 12.5 20  42.5 11.25 20  41.25 11.25 20  41.25 12.5 18.75  41.25 12.5 20  43.75 11.25 18.75  45 11.25 18.75  45 12.5 18.75  45 12.5 20  45 11.25 20  43.75 11.25 20  43.75 12.5 18.75  43.75 12.5 20  46.25 11.25 18.75  47.5 11.25 18.75  47.5 12.5 18.75  47.5 12.5 20  47.5 11.25 20  46.25 11.25 20  46.25 12.5 18.75  46.25 12.5 20  48.75 11.25 18.75  48.75 11.25 17.5  50 11.25 18.75  50 11.25 17.5  50 12.5 17.5  50 12.5 18.75  50 12.5 20  50 11.25 20  48.75 11.25 20  48.75 12.5 18.75  48.75 12.5 17.5  48.75 12.5 20  40 13.75 18.75  38.75 13.75 18.75  40 15 18.75  40 15 20  40 13.75 20  38.75 13.75 20  41.25 13.75 18.75  42.5 13.75 18.75  42.5 15 18.75  42.5 15 20  42.5 13.75 20  41.25 13.75 20  41.25 15 18.75  41.25 15 20  43.75 13.75 18.75  45 13.75 18.75  45 15 18.75  45 15 20  45 13.75 20  43.75 13.75 20  43.75 15 18.75  43.75 15 20  46.25 13.75 18.75  46.25 13.75 17.5  47.5 13.75 18.75  47.5 13.75 17.5  47.5 15 17.5  47.5 15 18.75  47.5 15 20  47.5 13.75 20  46.25 13.75 20  46.25 15 18.75  46.25 15 17.5  46.25 15 20  48.75 13.75 18.75  48.75 13.75 17.5  50 13.75 18.75  50 13.75 17.5  50 15 17.5  50 15 18.75  50 15 20  50 13.75 20  48.75 13.75 20  48.75 15 18.75  48.75 15 17.5  48.75 15 20  40 16.25 18.75  38.75 16.25 18.75  40 16.25 20  40 17.5 20  38.75 16.25 20  41.25 16.25 18.75  42.5 16.25 18.75  42.5 16.25 20  42.5 17.5 20  41.25 16.25 20  41.25 17.5 20  43.75 16.25 18.75  45 16.25 18.75  45 16.25 20  45 17.5 20  43.75 16.25 20  43.75 17.5 20  46.25 16.25 18.75  47.5 16.25 18.75  47.5 16.25 20  47.5 17.5 20  46.25 16.25 20  46.25 17.5 20  48.75 16.25 18.75  50 16.25 18.75  50 16.25 20  50 17.5 20  48.75 16.25 20  48.75 17.5 20  40 18.75 20  38.75 18.75 20  38.75 18.75 18.75  40 20 20  40 1.25 21.25  38.75 1.25 21
[...]
<PointData  Vectors="u"> 
<DataArray  type="Float64"  Name="u"  NumberOfComponents="3" format="ascii">1.9999999997439147e+02 6.1970401515226445e-10 2.2438851536047489e-11  1.9999999997340339e+02 -1.2740849747982406e-10 -3.6565732066078956e-11  1.9999999997339430e+02 -2.8316485009574401e-10 3.6368296853335428e-11  1.9999999997346760e+02 3.4985250667360986e-11 1.7527888407512099e-10  1.9999999997273721e+02 5.4670454522910862e-10 1.2515729347136770e-12  1.9999999997248321e+02 -1.5964732628284090e-10 -2.9347229612415113e-11  1.9999999997256930e+02 -1.1166940836039166e-11 1.9808641752536908e-11  1.9999999997272181e+02 5.6627145164944518e-10 1.1382800597197313e-10  1.9999999997270686e+02 -1.2566282435814499e-10 -1.3372109028164370e-10  1.9999999997274600e+02 1.5294014378048131e-10 8.5884383683051288e-11  1.9999999997426565e+02 6.0802105628781711e-11 9.0265975396293690e-12  1.9999999997437106e+02 5.0964216206177344e-10 9.1897153289590961e-11  1.9999999997344605e+02 -1.1026274139765051e-10 4.6767493107127726e-11  1.9999999997346836e+02 -9.1370415769011576e-12 -1.1663313239036270e-10  1.9999999997186984e+02 -9.9393300811791600e-11 -5.0383675244638905e-11  1.9999999997180856e+02 -4.2373472980937542e-10 -2.9275464537371869e-11  1.9999999997181965e+02 -1.5655584123171040e-10 -2.0041258937692038e-10  1.9999999997185236e+02 -7.9212586712620489e-11 -1.0080268491714054e-10  1.9999999997126434e+02 5.9771064535380932e-10 1.3851631032426771e-11  1.9999999997109924e+02 -8.4344101132076276e-11 -6.9360527415547970e-12  1.9999999997124638e+02 9.4463621989748182e-11 -1.8313858421157542e-11  1.9999999997190145e+02 -5.1581587460700933e-11 -3.2758679396269369e-11  1.9999999997345765e+02 -8.9685137512252901e-11 -8.9616003699819843e-11  1.9999999997265871e+02 -1.0427449774181996e-10 -2.2767605314244807e-10  1.9999999997274168e+02 -5.4360905727081172e-11 -5.5945089894476660e-11  1.9999999997269489e+02 9.6698089830847299e-11 8.9781466004984195e-11  1.9999999997345651e+02 -4.2505210916784595e-10 4.7164782335892980e-14  1.9999999997273292e+02 6.3163753404127347e-12 -7.6922226688107379e-11  1.9999999997270987e+02 4.7481273680639952e-10 1.1869632569928314e-10  1.9999999997274020e+02 -6.5016205210314741e-11 2.6684727636493164e-11  1.9999999997421457e+02 8.3939948651298548e-11 -4.7304731096227935e-11  1.9999999997436430e+02 5.0459052331359718e-10 9.5616363091088343e-11  1.9999999997342474e+02 -1.3121121987665660e-10 -8.6798922752547245e-11  1.9999999997346052e+02 1.1516712614710755e-10 -9.3198418156477941e-11  1.9999999997182286e+02 -1.6033587297495520e-10 -6.9263585487346871e-11  1.9999999997094574e+02 -9.2762160044002820e-11 -1.2874273617347509e-10  1.9999999997111175e+02 2.8364803558968897e-12 -4.1128780408694991e-11  1.9999999997123791e+02 8.4031501314881332e-11 1.1521781763657680e-10  1.9999999997182834e+02 -3.2717248649413301e-10 3.0964008646264985e-12  1.9999999997107969e+02 6.8714595199276570e-11 -8.3477372720554767e-12  1.9999999997120042e+02 4.9269931614529692e-10 1.1022200844651918e-10  1.9999999997114304e+02 -9.9701904393465935e-11 5.8779829931328572e-11  1.9999999997184017e+02 -1.8951172966439271e-11 -8.7970492224104406e-11  1.9999999997194470e+02 -1.7104907549253865e-12 -7.6270331376105275e-11  1.9999999997180072e+02 -1.3909708214409600e-10 -1.1781521549790022e-10  1.9999999997189255e+02 3.8223498350342734e-11 -9.1145551593887246e-11  1.9999999997029175e+02 -1.4317804362764677e-10 -1.0866060783123836e-10  1.9999999997014029e+02 -2.7055158856981502e-10 -4.3346371891093055e-11  1.9999999997030568e+02 -1.6261206550969915e-11 -1.9656275013476609e-11  1.9999999996969714e+02 6.2355005374159010e-10 9.5557274449506386e-12  1.9999999996939849e+02 -8.8659074606278401e-11 -1.0611418989945146e-10  1.9999999996958002e+02 -9.5163653541966223e-11 1.5978725135232020e-11  1.9999999996972915e+02 9.4017655030365735e-11 -1.4517163021929813e-12  1.9999999996963433e+02 1.1724786390160048e-11 -4.7129265502634417e-11  1.9999999996970797e+02 6.9196306433758628e-11 9.6229126362268492e-11  1.9999999997030261e+02 -3.4590912059512099e-10 3.1304640935966367e-11  1.9999999996953454e+02 7.6084910986637293e-11 -8.7552037033214414e-12  1.9999999996965727e+02 4.5496958636626166e-10 9.8580817225209393e-11  1.9999999996961563e+02 -7.4230611240023434e-11 7.7418324498783813e-11  1.9999999997025711e+02 -6.1383687253026020e-11 -8.8685396855065295e-11  1.9999999997036767e+02 2.5365144288730469e-11 -5.4188871210439346e-11  1.9999999997026117e+02 -1.7510996518040127e-10 -1.0442266706983900e-10  1.9999999997032415e+02 -9.5240056604357638e-11 5.9513174669523872e-11  1.9999999997031659e+02 7.1017952992995827e-11 -7.4218631575727705e-11  1.9999999996878174e+02 -1.2296566132838273e-10 -9.1144274160774087e-11  1.9999999996866561e+02 -2.2252010955431511e-10 -9.4123342136513168e-11  1.9999999996879268e+02 -6.4270371105695474e-11 -3.6939546173001452e-11  1.9999999996825233e+02 6.1589027288650826e-10 -3.9009315366688786e-11  1.9999999996797692e+02 -9.5542217249401889e-11 -7.8740711272704162e-11  1.9999999996811198e+02 -1.0458741554170543e-10 -4.5498641626075700e-12  1.9999999996819031e+02 1.0712919572609134e-10 -1.5110941867002451e-11  1.9999999996812346e+02 1.2363215795160468e-11 -1.7127783988179379e-11  1.9999999996820895e+02 8.1247411902926009e-11 6.1725579988527274e-11  1.9999999996879816e+02 -2.6586883486242421e-10 4.4099201058841828e-11  1.9999999996811334e+02 4.2816058166357679e-11 2.9152354601550970e-11  1.9999999996821194e+02 4.4411122260464920e-10 5.9484955552480815e-11  1.9999999996814995e+02 -7.3314742864458942e-11 4.8022811882291333e-11  1.9999999996874021e+02 -4.3836753204605781e-12 -8.8525855002914514e-11  1.9999999996885117e+02 1.7546954017766182e-11 -4.7108561461713202e-11  1.9999999996875491e+02 -1.0369882929821388e-10 -1.0683348825484826e-10  1.9999999996884191e+02 -4.7964156981999778e-11 3.8213929804870436e-11  1.9999999996885856e+02 3.8056122179581402e-11 -8.9165637720033888e-11  1.9999999996733780e+02 -1.1430388450595398e-10 -9.9078855346398942e-11  1.9999999996724810e+02 -2.5713747562249748e-10 -5.7177585884209557e-11  1.9999999996737083e+02 -6.8821910463989974e-11 1.9165003366663046e-11  1.9999999996661450e+02 2.5314898717391639e-10 2.2537567316439153e-11  1.9999999996640727e+02 -6.1779361198578285e-12 -9.8145170592564124e-12  1.9999999996646940e+02 3.3042452799609542e-12 1.3236662381793509e-10  1.9999999996661822e+02 4.5680215547529897e-11 1.9432706887012298e-11  1.9999999996643618e+02 -9.7012243636674312e-12 -1.1186281833298658e-11  1.9999999996661310e+02 2.5866858901188516e-11 2.8684625208873686e-11  1.9999999996737978e+02 -2.5762326004288842e-10 2.8621620834014322e-11  1.9999999996644195e+02 -4.9738769028651883e-11 -1.9694029332458740e-11  1.9999999996661842e+02 1.9285298177651404e-10 6.9808276601351259e-12  1.9999999996645056e+02 1.5767354385059288e-11 3.2733082001069882e-11  1.9999999996733916e+02 -6.9951304589569049e-12 -1.1996592181408814e-10  1.9999999996732953e+02 3.2320040517650269e-11 -1.0135937956033199e-10  1.9999999996734738e+02 -1.7842321308690063e-10 -7.1550298512093874e-11  1.9999999996739894e+02 -8.4213901785425410e-11 7.5644215849409534e-11  1.9999999996738072e+02 5.6690286692188249e-11 -1.2748202340917176e-10  1.9999999997183019e+02 -9.0407344217028482e-11 -9.5891668184549835e-11  1.9999999997174928e+02 -1.8794882189100338e-10 -5.8616266471786446e-11  1.9999999997100758e+02 -1.1688485097431212e-10 -7.4254230275022381e-11  1.9999999997106011e+02 -2.0877643127259169e-12 4.3856224550539113e-11  1.9999999997120764e+02 1.2415027521384781e-10 7.9501552288638059e-13  1.9999999997113474e+02 2.0544736492421512e-11 -3.8862646704785571e-11  1.9999999997126119e+02 1.2719273001308684e-10 7.6817002923145313e-11  1.9999999997114705e+02 -4.5540673386838296e-11 -4.6073305482086888e-11  1.9999999997183804e+02 -9.6167617594727457e-11 -1.7353920903202231e-10  1.9999999997258146e+02 -3.3637933376893901e-11 -3.8198822877698012e-11  1.9999999997270695e+02 1.2836586717871195e-10 2.0422722072246242e-11  1.9999999997182815e+02 -1.2794785501873509e-10 -1.1414187567330735e-10  1.9999999997191836e+02 -6.6621112041687222e-11 5.4848209419606879e-11  1.9999999997265670e+02 -2.0379521080629748e-10 -2.0276071750504629e-10  1.9999999997268952e+02 -2.4246314029247347e-11 -1.2623276382651112e-10  1.9999999997191225e+02 -8.0376293300288748e-12 -6.0380726838027711e-11  1.9999999997029690e+02 -6.8930857639997600e-11 -6.7244208268529146e-11  1.9999999996937407e+02 -9.3301593735484836e-11 -2.8089843639377122e-11  1.9999999996961225e+02 1.0707106830493740e-11 -6.5935762369305735e-11  1.9999999996970698e+02 1.1510829303794601e-10 2.8125693392989224e-11  1.9999999997026330e+02 -7.4759034970241532e-11 -1.5853674767262462e-10  1.9999999997031472e+02 4.4414540656625097e-11 -4.1412193987090026e-11  1.9999999997028803e+02 -2.0312637851704828e-10 4.2549274656940970e-12  1.9999999996879862e+02 -6.0965595041801101e-11 -6.5311331341574726e-11  1.9999999996787705e+02 -1.0285075165337433e-10 -2.2215802292176231e-11  1.9999999996812969e+02 6.5591261011935674e-12 -6.8732462354118971e-11  1.9999999996816302e+02 1.0316399978061649e-10 2.1181699688618942e-11  1.9999999996875843e+02 -4.6051451527390961e-11 -1.9551987877290728e-10  1.9999999996888516e+02 -7.0792944413895551e-11 2.6589744972904811e-11  1.9999999996731714e+02 -8.4113533515659261e-11 -2.9913540623591603e-11  1.9999999996633332e+02 1.9776003461729941e-11 -1.4141485574040330e-11  1.9999999996640466e+02 -3.7598135793175087e-12 -1.5002435997727819e-11  1.9999999996658119e+02 4.2501210706062051e-11 -5.2265685447000066e-12  1.9999999996732708e+02 -9.2480310705703864e-11 -2.0986847559824021e-10  1.9999999996734411e+02 -8.4999648876018927e-11 1.6227814227514919e-11  1.9999999997188308e+02 -9.3882899230701076e-11 -7.8672790031539976e-11  1.9999999997092192e+02 -9.1003764360997630e-11 -6.2952972670303634e-11  1.9999999997115148e+02 -6.8471090719706166e-11 -4.0448250513859587e-11  1.9999999997125190e+02 8.9163282342728793e-11 2.4899041257425051e-11  1.9999999997185671e+02 -1.2503188596176334e-10 -1.7564533028075021e-10  1.9999999997265004e+02 1.3306417646954198e-10 9.9268819696675274e-11  1.9999999997189718e+02 -4.7401500047177622e-12 -3.7997449595063928e-11  1.9999999997187760e+02 -2.3583263477256292e-10 -2.9258989765894551e-11  1.9999999997029761e+02 -6.5489666802517317e-11 -1.5885535904860301e-11  1.9999999997028300e+02 -1.7037437894730700e-10 -2.3662658392435421e-10  1.9999999996951072e+02 -2.4638537623369074e-11 -4.5632021252224082e-13  1.9999999996972107e+02 9.0747570175840507e-11 -1.7351863311231917e-11  1.9999999997033206e+02 -7.4919483611762661e-11 -1.2251139176709870e-11  1.9999999997182331e+02 -1.0321817855865641e-10 -1.8136864555118389e-10  1.9999999997189300e+02 -4.4566312947203451e-11 -4.5944614481538450e-11  1.9999999997109276e+02 -1.1756474017516878e-11 2.1599981603483682e-11  1.9999999997124181e+02 8.4577923428537993e-11 3.3152742824636752e-12  1.9999999997265923e+02 1.3329098317734188e-10 6.1150005182541584e-11  1.9999999997188257e+02 -9.1933180150348813e-11 5.2032247233724178e-11  1.9999999997346328e+02 -1.0804890521903178e-10 -5.2316342453574849e-11  1.9999999997274617e+02 8.8744513295932943e-12 -1.7696602107439040e-10  1.9999999997267795e+02 3.1051882076079342e-11 -5.3045471348097929e-11  1.9999999997269850e+02 3.6821586033217731e-11 1.1511132235504521e-10  1.9999999997347174e+02 -4.3589976118238792e-10 -5.5252926515176763e-11  1.9999999997270203e+02 5.6513960637665100e-11 -3.8745644890375326e-11  1.9999999997269649e+02 5.1584355735827059e-10 1.0737030432404146e-10  1.9999999997271942e+02 -1.1071217974655182e-10 -6.7964711342064337e-11  1.9999999997420642e+02 9.0196612108822272e-13 -1.0498133025020062e-11  1.9999999997435376e+02 4.9896445056043004e-10 8.2702492486183315e-11  1.9999999997349022e+02 1.3853548273932854e-10 -8.6751877998808339e-11  1.9999999997182280e+02 -9.8002483246756626e-11 -5.1800932888641741e-11  1.9999999997099749e+02 -5.3877916808959017e-11 -1.2339744480462829e-10  1.9999999997104857e+02 1.5601069956701276e-11 -8.0359102078334966e-11  1.9999999997125587e+02 4.6151673642341754e-12 1.1806381037582214e-10  1.9999999997187476e+02 -4.0453079862132576e-10 -6.9861554812254717e-11  1.9999999997107528e+02 6.9073945754426740e-11 -2.9715784208600699e-11  1.9999999997121444e+02 4.5259125490187631e-10 6.3662595849490948e-11  1.9999999997115512e+02 -4.7870581952187201e-11 1.3929815113638698e-11  1.9999999997180987e+02 -4.2113604442699707e-12 -1.7900119467319397e-10  1.9999999997188544e+02 3.9491834175627391e-11 -7.1438564027189193e-11  1.9999999997178097e+02 -2.3767755649670654e-11 -2.0571606493902256e-10  1.9999999997184469e+02 -1.4950579979025261e-11 -8.2404771065028741e-11  1.9999999997027578e+02 -6.5621457271528094e-11 -8.7761285631886114e-11  1.9999999996945891e+02 -1.2876100033519185e-11 -1.5457758069160982e-10  1.9999999996951550e+02 2.0749223075885139e-11 -4.7263425217099956e-11  1.9999999996971871e+02 4.4253294276033056e-11 8.7283239530563904e-11  1.9999999997029846e+02 -3.7127308258030164e-10 -6.8019308244894629e-11  1.9999999996955088e+02 1.8171157801521560e-11 -3.5209331503226553e-11  1.9999999996969325e+02 4.2825831154295752e-10 7.5216097869212802e-11  1.9999999996960474e+02 -6.8293475497646216e-11 6.2897668960973615e-12  1.9999999997022374e+02 -2.0844811192260376e-11 -1.5562433553576258e-10  1.9999999997031748e+02 1.6551940153670440e-11 -5.2278868249622363e-11  1.9999999997019793e+02 -7.8926293993905668e-11 -1.9916235133105121e-10  1.9999999997033041e+02 5.1939577799141230e-12 -7.2313286989487514e-11  1.9999999996878537e+02 -7.9882926321897422e-11 -6.8402075879639677e-11  1.9999999996794753e+02 -4.7724982717167851e-11 -8.9303405336445180e-11  1.9999999996804812e+02 6.4695119956362215e-12 -4.0044956367184456e-11  1.9999999996820699e+02 5.3169014706992596e-11 9.3821021125753341e-11  1.9999999996878933e+02 -3.4522224565637334e-10 -3.1351956239223055e-11  1.9999999996804917e+02 6.9553260332882245e-11 -1.9906907229786823e-11  1.9999999996817760e+02 4.3072557954925230e-10 6.1775900372551140e-11  1.9999999996812119e+02 -9.2179451636609778e-11 -3.5954279911082451e-11  1.9999999996876159e+02 -3.0002514170681718e-11 -1.9911587094110824e-10  1.9999999996882943e+02 4.0799878187417864e-11 -8.2454342586040955e-11  1.9999999996868422e+02 3.4404099672517832e-11 -2.0161984793276933e-10  1.9999999996882320e+02 1.7256068013650683e-11 -6.3026585876582399e-11  1.9999999996731435e+02 -2.9940139723645516e-11 -8.3240711250382122e-11  1.9999999996628560e+02 -3.5485483345946579e-11 1.3390990979768450e-11  1.9999999996645218e+02 -5.4832428356512142e-12 -8.4214820450459581e-12  1.9999999996661839e+02 1.7202222062514698e-11 3.6629134259210814e-11  1.9999999996734647e+02 -2.8312738537899644e-10 -2.7665333788724570e-11  1.9999999996647784e+02 -2.3675940866302787e-11 -2.1905859497602181e-11  1.9999999996657476e+02 1.8373303157831425e-10 2.3908262171692063e-11  1.9999999996640688e+02 7.7639870958169463e-12 -8.2177976761185108e-12  1.9999999996732365e+02 -4.9317194438122019e-12 -1.8158752892420126e-10  1.9999999996734775e+02 5.7426705340717404e-12 -1.0888716131225184e-10  1.9999999996726947e+02 -1.2908560374323999e-12 -1.5266460280318705e-10  1.9999999996736736e+02 6.2914976259977788e-12 -1.0097548608524810e-10  1.9999999997184199e+02 -1.0238936363693212e-10 -7.8970030866774353e-11  1.9999999997099147e+02 -7.9694889785282787e-11 -1.4637114865431904e-10  1.9999999997116609e+02 1.1873237091087083e-11 -8.7378812175835178e-11  1.9999999997121824e+02 8.8121641468021388e-11 5.7119446079473053e-11  1.9999999997110621e+02 -5.4785910982615663e-12 -4.2496257915896218e-11  1.9999999997182863e+02 -7.8582838545697188e-11 -1.5312761623717712e-10  1.9999999997186603e+02 -1.1794513443727857e-10 -9.2430070667712507e-11  1.9999999997267170e+02 -1.8965536782009316e-10 -1.9280074208118672e-10  1.9999999997265942e+02 -7.6827956322339962e-13 -1.0389587277764725e-10  1.9999999997264979e+02 1.2622966034685071e-10 1.2133523070102902e-10  1.9999999997188715e+02 4.5336791872440862e-12 -2.2884865523907190e-11  1.9999999997029542e+02 -4.9513403285215635e-11 -1.0129497453828198e-10  1.9999999996945294e+02 -7.7958650392823618e-11 -1.2077940954834540e-10  1.9999999996959795e+02 -1.4557454597348179e-12 -4.6489773539874863e-11  1.9999999996970340e+02 9.8606074563201835e-11 4.6718605696299964e-11  1.9999999996961452e+02 -2.1251442552805440e-11 -3.3316014554222055e-11  1.9999999997027751e+02 -9.1666110173581327e-11 -1.5564094341051609e-10  1.9999999997026671e+02 -1.4838434077337198e-10 -1.0565049978594195e-10  1.9999999997036980e+02 -3.9906916554752894e-12 -8.2234545896535665e-11  1.9999999996879632e+02 -6.1928728601472184e-11 -7.3656406180541087e-11  1.9999999996796763e+02 -4.6334661177800081e-11 -1.2040055043535259e-10  1.9999999996810129e+02 -1.8788618394497916e-11 -3.0910562292585526e-11  1.9999999996815620e+02 7.8582516246262712e-11 6.0551913729070103e-11  1.9999999996810337e+02 -6.4334585657799455e-12 -1.3837469106756801e-11  1.9999999996876298e+02 -6.0492965274019748e-11 -1.8906370541413007e-10  1.9999999996876124e+02 -1.6719670467607274e-10 -1.2721594358938464e-10  1.9999999996887104e+02 1.4533286984756433e-12 -2.7833630896940448e-11  1.9999999996730494e+02 -9.8785641841550226e-11 -9.5258494428048686e-11  1.9999999996641102e+02 3.5734912361505201e-12 -1.7105184432052672e-11  1.9999999996642956e+02 2.5360633967876542e-11 4.0145909525167470e-12  1.9999999996660159e+02 3.7900061245746949e-11 2.7682768862380822e-11  1.9999999996645124e+02 -1.4922023511432667e-11 2.7535541237170722e-11  1.9999999996731052e+02 -8.0023525686786050e-11 -1.7697154651908017e-10  1.9999999996730952e+02 -1.4886631454458997e-10 -1.0814008702958170e-10  1.9999999996733976e+02 3.8663655695377380e-12 -3.3120840613061737e-12  1.9999999997101185e+02 -1.4138391709432507e-10 -1.4231173900138279e-10  1.9999999997182741e+02 -9.0564997748277629e-11 -8.1433725647633572e-11  1.9999999997114756e+02 8.8396803768610263e-12 -3.0364301170522676e-11  1.9999999997122950e+02 9.2665972253048239e-11 4.7136513359374577e-11  1.9999999997111385e+02 -3.8765185554273196e-11 -4.0319755239214943e-11  1.9999999997180947e+02 -1.3475282864779159e-10 -1.4996737064586169e-10  1.9999999997182655e+02 -1.3451155564944295e-10 -1.1635806244734124e-10  1.9999999997265522e+02 -4.7102428985650973e-11 -4.2709525627620728e-11  1.9999999997267346e+02 -2.0172453274026891e-10 -1.7801531611843363e-10  1.9999999997263174e+02 1.0242645328631903e-10 1.1684198612171547e-10  1.9999999997185083e+02 -1.1928288794809059e-11 -2.4392222447611181e-11  1.9999999997267312e+02 -5.6194877821922600e-11 -6.1439865695699637e-11  1.9999999997027584e+02 -1.1550757637098577e-10 -1.0087432567397803e-10  1.9999999996943677e+02 -1.1149831485020337e-10 -1.0454268743869395e-10  1.9999999996962379e+02 -2.9855419383579948e-11 -4.8168644654305234e-11  1.9999999996971906e+02 9.0300305936494523e-11 6.7438186747998039e-11  1.9999999996964780e+02 -4.3911609967096900e-11 -4.7433305000946759e-11  1.9999999997029255e+02 -1.1462299819129319e-10 -2.4185163013744213e-10  1.9999999997024642e+02 -1.8076042652180818e-10 -1.1089986577816791e-10  1.9999999997034845e+02 -5.8955534261000022e-13 -3.4472027132504471e-11  1.9999999996878498e+02 -9.7145280095423876e-11 -1.0158388240737590e-10  1.9999999996868337e+02 -2.1241443476019509e-10 -2.0945139279890265e-11  1.9999999996794162e+02 -1.3807140243980807e-10 -1.0415885941127527e-10  1.9999999996804721e+02 -6.6410543184205849e-11 6.6925084100106471e-11  1.9999999996817922e+02 7.1089329449805130e-11 3.1968821633480569e-12  1.9999999996810783e+02 -4.9019148406623437e-11 -4.4435487404116060e-11  1.9999999996816845e+02 7.5927226677848253e-11 5.4877614541293281e-11  1.9999999996810769e+02 -8.1838894799687733e-11 -3.8335121730464531e-11  1.9999999996872461e+02 -1.1939401375285517e-10 -1.7530162409689388e-10  1.9999999996871250e+02 -1.7047805292054428e-10 -1.0343273211637901e-10  1.9999999996879177e+02 -8.0616145321841067e-11 5.7514192231529521e-11  1.99