<?xml version="1.0"?>
<VTKFile type="UnstructuredGrid"  version="0.1"  >
<UnstructuredGrid>
<Piece  NumberOfPoints="4075" NumberOfCells="20137">
<Points>
<DataArray  type="Float64"  NumberOfComponents="3"  format="ascii">27.5 37.5 37.5  27.5 37.5 38.75  27.5 36.25 38.75  26.25 36.25 38.75  27.5 37.5 40  27.5 35 40  27.5 36.25 40  26.25 37.5 38.75  27.5 38.75 38.75  27.5 38.75 37.5  26.25 38.75 38.75  27.5 40 37.5  27.5 40 38.75  27.5 40 40  27.5 38.75 40  27.5 38.75 41.25  26.25 38.75 41.25  27.5 40 41.25  27.5 40 42.5  27.5 37.5 41.25  27.5 37.5 42.5  27.5 38.75 42.5  26.25 40 41.25  27.5 41.25 41.25  27.5 41.25 40  26.25 41.25 41.25  27.5 42.5 40  27.5 42.5 41.25  27.5 42.5 42.5  27.5 41.25 42.5  45 37.5 35  45 37.5 36.25  45 36.25 36.25  43.75 36.25 36.25  45 37.5 37.5  45 35 37.5  45 36.25 37.5  42.5 35 37.5  43.75 36.25 37.5  43.75 35 37.5  42.5 37.5 35  43.75 37.5 36.25  43.75 37.5 35  47.5 37.5 35  47.5 37.5 36.25  47.5 36.25 36.25  46.25 36.25 36.25  47.5 37.5 37.5  47.5 35 37.5  47.5 36.25 37.5  46.25 36.25 37.5  46.25 35 37.5  46.25 37.5 36.25  46.25 37.5 37.5  50 37.5 35  50 37.5 36.25  50 36.25 36.25  48.75 36.25 36.25  50 37.5 37.5  50 35 37.5  50 36.25 37.5  48.75 36.25 37.5  48.75 35 37.5  48.75 37.5 36.25  48.75 37.5 35  48.75 37.5 37.5  42.5 35 38.75  42.5 33.75 38.75  41.25 33.75 38.75  42.5 35 40  42.5 32.5 37.5  42.5 32.5 38.75  42.5 32.5 40  42.5 33.75 40  43.75 35 38.75  43.75 33.75 38.75  45 35 38.75  45 35 40  43.75 33.75 40  43.75 35 40  47.5 35 38.75  46.25 35 38.75  46.25 33.75 38.75  47.5 35 40  48.75 35 38.75  48.75 33.75 38.75  46.25 36.25 38.75  47.5 36.25 38.75  47.5 37.5 38.75  47.5 37.5 40  47.5 36.25 40  48.75 36.25 38.75  50 36.25 38.75  50 37.5 38.75  50 37.5 40  50 35 38.75  50 35 40  50 36.25 40  48.75 36.25 40  48.75 35 40  48.75 37.5 38.75  48.75 37.5 40  45 35 41.25  45 33.75 41.25  43.75 33.75 41.25  45 35 42.5  47.5 35 41.25  47.5 33.75 41.25  46.25 33.75 41.25  47.5 35 42.5  46.25 35 41.25  46.25 35 40  46.25 35 42.5  48.75 35 41.25  48.75 33.75 41.25  50 35 41.25  50 35 42.5  48.75 35 42.5  48.75 33.75 42.5  30 37.5 32.5  30 38.75 33.75  30 37.5 33.75  28.75 38.75 33.75  30 37.5 35  30 38.75 35  30 40 35  27.5 37.5 35  28.75 38.75 35  28.75 37.5 35  27.5 38.75 35  27.5 38.75 33.75  27.5 40 35  28.75 40 35  32.5 37.5 32.5  32.5 38.75 33.75  32.5 38.75 32.5  31.25 38.75 33.75  32.5 40 32.5  32.5 40 33.75  32.5 40 35  32.5 37.5 33.75  32.5 37.5 35  32.5 38.75 35  31.25 38.75 35  31.25 37.5 35  31.25 40 35  35 40 32.5  35 40 33.75  35 38.75 33.75  33.75 38.75 33.75  35 40 35  35 37.5 35  35 38.75 35  33.75 38.75 35  33.75 37.5 35  33.75 40 33.75  33.75 40 32.5  33.75 40 35  37.5 40 32.5  37.5 40 33.75  37.5 38.75 33.75  36.25 38.75 33.75  37.5 38.75 32.5  36.25 38.75 32.5  37.5 40 35  37.5 37.5 35  37.5 38.75 35  36.25 38.75 35  36.25 37.5 35  36.25 40 33.75  36.25 40 32.5  36.25 40 35  40 40 32.5  40 40 33.75  40 38.75 33.75  38.75 38.75 33.75  40 38.75 32.5  38.75 38.75 32.5  40 40 35  40 37.5 35  40 38.75 35  38.75 38.75 35  38.75 40 33.75  38.75 40 32.5  38.75 40 35  42.5 37.5 32.5  42.5 38.75 33.75  42.5 37.5 33.75  41.25 38.75 33.75  42.5 38.75 35  42.5 40 35  41.25 38.75 35  41.25 37.5 35  41.25 40 35  41.25 40 33.75  43.75 38.75 35  43.75 38.75 33.75  45 38.75 35  45 40 35  43.75 40 35  33.75 41.25 33.75  35 41.25 33.75  35 41.25 35  35 42.5 35  33.75 41.25 35  36.25 41.25 33.75  37.5 41.25 33.75  37.5 41.25 35  37.5 42.5 35  36.25 41.25 35  36.25 42.5 35  38.75 41.25 33.75  40 41.25 33.75  40 41.25 35  40 42.5 35  38.75 41.25 35  38.75 42.5 35  41.25 41.25 33.75  41.25 41.25 35  42.5 41.25 35  42.5 42.5 35  41.25 42.5 35  30 37.5 36.25  30 36.25 36.25  28.75 36.25 36.25  30 37.5 37.5  30 35 37.5  30 36.25 37.5  28.75 36.25 37.5  28.75 37.5 36.25  28.75 37.5 37.5  27.5 37.5 36.25  32.5 37.5 36.25  32.5 36.25 36.25  31.25 36.25 36.25  32.5 37.5 37.5  32.5 35 37.5  32.5 36.25 37.5  31.25 36.25 37.5  31.25 35 37.5  31.25 37.5 36.25  31.25 37.5 37.5  35 37.5 36.25  35 36.25 36.25  33.75 36.25 36.25  35 37.5 37.5  35 35 37.5  35 36.25 37.5  33.75 36.25 37.5  33.75 35 37.5  33.75 37.5 36.25  33.75 37.5 37.5  37.5 37.5 36.25  37.5 36.25 36.25  36.25 36.25 36.25  37.5 37.5 37.5  37.5 35 37.5  37.5 36.25 37.5  36.25 36.25 37.5  36.25 35 37.5  36.25 37.5 36.25  36.25 37.5 37.5  40 37.5 36.25  40 36.25 36.25  38.75 36.25 36.25  40 37.5 37.5  40 35 37.5  40 36.25 37.5  38.75 36.25 37.5  38.75 35 37.5  38.75 37.5 36.25  38.75 37.5 37.5  42.5 37.5 36.25  42.5 36.25 36.25  41.25 36.25 36.25  42.5 37.5 37.5  42.5 36.25 37.5  41.25 36.25 37.5  41.25 37.5 36.25  41.25 37.5 37.5  43.75 37.5 37.5  28.75 38.75 36.25  30 38.75 36.25  30 40 36.25  30 40 37.5  30 38.75 37.5  28.75 38.75 37.5  28.75 40 36.25  27.5 38.75 36.25  28.75 40 37.5  27.5 40 36.25  31.25 38.75 36.25  32.5 38.75 36.25  32.5 40 36.25  32.5 40 37.5  32.5 38.75 37.5  31.25 38.75 37.5  31.25 40 36.25  31.25 40 37.5  33.75 38.75 36.25  35 38.75 36.25  35 40 36.25  35 40 37.5  35 38.75 37.5  33.75 38.75 37.5  33.75 40 36.25  33.75 40 37.5  36.25 38.75 36.25  37.5 38.75 36.25  37.5 40 36.25  37.5 40 37.5  37.5 38.75 37.5  36.25 38.75 37.5  36.25 40 36.25  36.25 40 37.5  40 38.75 36.25  38.75 38.75 36.25  40 40 36.25  40 40 37.5  40 38.75 37.5  38.75 38.75 37.5  38.75 40 36.25  38.75 40 37.5  41.25 38.75 36.25  42.5 38.75 36.25  42.5 40 36.25  42.5 40 37.5  42.5 38.75 37.5  41.25 38.75 37.5  41.25 40 36.25  41.25 40 37.5  43.75 38.75 36.25  45 38.75 36.25  45 40 36.25  45 40 37.5  45 38.75 37.5  43.75 38.75 37.5  43.75 40 36.25  43.75 40 37.5  47.5 38.75 36.25  47.5 38.75 35  46.25 38.75 36.25  46.25 38.75 35  47.5 40 35  47.5 40 36.25  47.5 40 37.5  47.5 38.75 37.5  46.25 38.75 37.5  46.25 40 36.25  46.25 40 35  46.25 40 37.5  48.75 38.75 36.25  48.75 38.75 35  50 38.75 36.25  50 38.75 35  50 40 35  50 40 36.25  50 40 37.5  50 38.75 37.5  48.75 38.75 37.5  48.75 40 36.25  48.75 40 35  48.75 40 37.5  28.75 41.25 36.25  28.75 41.25 35  30 41.25 36.25  30 41.25 35  30 42.5 35  30 42.5 36.25  30 42.5 37.5  30 41.25 37.5  28.75 41.25 37.5  27.5 42.5 35  28.75 42.5 36.25  28.75 42.5 35  27.5 41.25 37.5  27.5 42.5 37.5  28.75 42.5 37.5  31.25 41.25 36.25  31.25 41.25 35  32.5 41.25 36.25  32.5 41.25 35  32.5 42.5 35  32.5 42.5 36.25  32.5 42.5 37.5  32.5 41.25 37.5  31.25 41.25 37.5  31.25 42.5 36.25  31.25 42.5 35  31.25 42.5 37.5  33.75 41.25 36.25  35 41.25 36.25  35 42.5 36.25  35 42.5 37.5  35 41.25 37.5  33.75 41.25 37.5  33.75 42.5 36.25  33.75 42.5 35  33.75 42.5 37.5  36.25 41.25 36.25  37.5 41.25 36.25  37.5 42.5 36.25  37.5 42.5 37.5  37.5 41.25 37.5  36.25 41.25 37.5  36.25 42.5 36.25  36.25 42.5 37.5  38.75 41.25 36.25  40 41.25 36.25  40 42.5 36.25  40 42.5 37.5  40 41.25 37.5  38.75 41.25 37.5  38.75 42.5 36.25  38.75 42.5 37.5  41.25 41.25 36.25  42.5 41.25 36.25  42.5 42.5 36.25  42.5 42.5 37.5  42.5 41.25 37.5  41.25 41.25 37.5  41.25 42.5 36.25  41.25 42.5 37.5  43.75 41.25 36.25  43.75 41.25 35  45 41.25 36.25  45 41.25 35  45 42.5 35  45 42.5 36.25  45 42.5 37.5  45 41.25 37.5  43.75 41.25 37.5  43.75 42.5 36.25  43.75 42.5 35  43.75 42.5 37.5  46.25 41.25 36.25  46.25 41.25 35  47.5 41.25 36.25  47.5 41.25 35  47.5 42.5 35  47.5 42.5 36.25  47.5 42.5 37.5  47.5 41.25 37.5  46.25 41.25 37.5  46.25 42.5 36.25  46.25 42.5 35  46.25 42.5 37.5  48.75 41.25 36.25  48.75 41.25 35  50 41.25 36.25  50 41.25 35  50 42.5 35  50 42.5 36.25  50 42.5 37.5  50 41.25 37.5  48.75 41.25 37.5  48.75 42.5 36.25  48.75 42.5 35  48.75 42.5 37.5  28.75 43.75 36.25  28.75 43.75 35  30 43.75 36.25  30 43.75 35  30 45 35  30 45 36.25  30 45 37.5  30 43.75 37.5  28.75 43.75 37.5  27.5 43.75 35  27.5 45 35  28.75 45 36.25  28.75 45 35  31.25 43.75 36.25  31.25 43.75 35  32.5 43.75 36.25  32.5 43.75 35  32.5 45 35  32.5 45 36.25  32.5 45 37.5  32.5 43.75 37.5  31.25 43.75 37.5  31.25 45 36.25  31.25 45 35  31.25 45 37.5  33.75 43.75 36.25  33.75 43.75 35  35 43.75 36.25  35 43.75 35  35 45 35  35 45 36.25  35 45 37.5  35 43.75 37.5  33.75 43.75 37.5  33.75 45 36.25  33.75 45 35  33.75 45 37.5  36.25 43.75 36.25  36.25 43.75 35  37.5 43.75 36.25  37.5 43.75 35  37.5 45 35  37.5 45 36.25  37.5 45 37.5  37.5 43.75 37.5  36.25 43.75 37.5  36.25 45 36.25  36.25 45 35  36.25 45 37.5  38.75 43.75 36.25  38.75 43.75 35  40 43.75 36.25  40 43.75 35  40 45 35  40 45 36.25  40 45 37.5  40 43.75 37.5  38.75 43.75 37.5  38.75 45 36.25  38.75 45 35  38.75 45 37.5  41.25 43.75 36.25  41.25 43.75 35  42.5 43.75 36.25  42.5 43.75 35  42.5 45 35  42.5 45 36.25  42.5 45 37.5  42.5 43.75 37.5  41.25 43.75 37.5  41.25 45 36.25  41.25 45 35  41.25 45 37.5  43.75 43.75 36.25  43.75 43.75 35  45 43.75 36.25  45 43.75 35  45 45 35  45 45 36.25  45 45 37.5  45 43.75 37.5  43.75 43.75 37.5  43.75 45 36.25  43.75 45 35  43.75 45 37.5  46.25 43.75 36.25  46.25 43.75 35  47.5 43.75 36.25  47.5 43.75 35  47.5 45 35  47.5 45 36.25  47.5 45 37.5  47.5 43.75 37.5  46.25 43.75 37.5  46.25 45 36.25  46.25 45 35  46.25 45 37.5  48.75 43.75 36.25  48.75 43.75 35  50 43.75 36.25  50 43.75 35  50 45 35  50 45 36.25  50 45 37.5  50 43.75 37.5  48.75 43.75 37.5  48.75 45 36.25  48.75 45 35  48.75 45 37.5  28.75 46.25 36.25  28.75 46.25 35  30 46.25 36.25  30 46.25 35  30 47.5 35  30 47.5 36.25  30 47.5 37.5  30 46.25 37.5  28.75 46.25 37.5  28.75 47.5 36.25  27.5 47.5 37.5  28.75 47.5 37.5  31.25 46.25 36.25  31.25 46.25 35  32.5 46.25 36.25  32.5 46.25 35  32.5 47.5 35  32.5 47.5 36.25  32.5 47.5 37.5  32.5 46.25 37.5  31.25 46.25 37.5  31.25 47.5 36.25  31.25 47.5 35  31.25 47.5 37.5  33.75 46.25 36.25  33.75 46.25 35  35 46.25 36.25  35 46.25 35  35 47.5 35  35 47.5 36.25  35 47.5 37.5  35 46.25 37.5  33.75 46.25 37.5  33.75 47.5 36.25  33.75 47.5 35  33.75 47.5 37.5  36.25 46.25 36.25  36.25 46.25 35  37.5 46.25 36.25  37.5 46.25 35  37.5 47.5 35  37.5 47.5 36.25  37.5 47.5 37.5  37.5 46.25 37.5  36.25 46.25 37.5  36.25 47.5 36.25  36.25 47.5 35  36.25 47.5 37.5  38.75 46.25 36.25  38.75 46.25 35  40 46.25 36.25  40 46.25 35  40 47.5 35  40 47.5 36.25  40 47.5 37.5  40
[...]
<PointData  Vectors="u"> 
<DataArray  type="Float64"  Name="u"  NumberOfComponents="3" format="ascii">1.9999999998080969e+02 7.6819317967713428e-11 8.6529389704259881e-11  1.9999999998060545e+02 -2.4748243629040756e-11 -6.6178346516824747e-11  1.9999999998054338e+02 -1.1308353666029503e-10 -1.1495047128083495e-10  1.9999999998145782e+02 -1.0496868432412088e-10 -9.7041932100575455e-11  1.9999999998081503e+02 5.9491375574971258e-11 9.6245921473649339e-11  1.9999999998079747e+02 7.0223418412325547e-11 7.1536322865304258e-11  1.9999999998063373e+02 3.4197859321268872e-12 1.9736349854600073e-11  1.9999999998144199e+02 -1.9174422022934542e-10 -1.6597712764410831e-10  1.9999999998056680e+02 -1.2054498157984004e-10 -1.2113431792378735e-10  1.9999999998058280e+02 -4.7286160641572856e-11 -3.1353919982910191e-11  1.9999999998142087e+02 -7.6594480514997989e-11 -1.2278598917770394e-10  1.9999999998078732e+02 1.0930412904820401e-10 4.7928917613205556e-11  1.9999999998063242e+02 3.2933139729759182e-11 -4.8690696988498878e-11  1.9999999998080204e+02 9.4287938841009241e-11 8.9814126551817306e-11  1.9999999998062569e+02 -2.5979699088918401e-11 7.5096845380660672e-12  1.9999999998059292e+02 -1.2059521327691484e-10 -1.3298758926661708e-10  1.9999999998142064e+02 -7.5597212780798704e-11 -1.0972261151770702e-10  1.9999999998062589e+02 -1.3789780828211737e-11 -2.6778202812302609e-11  1.9999999998081103e+02 7.8461856889444816e-11 9.5991446544490608e-11  1.9999999998057788e+02 -1.5304035548000976e-11 -6.3834619824335290e-11  1.9999999998076797e+02 7.3716871251538194e-11 9.6315904502137507e-11  1.9999999998060827e+02 1.6275192343267544e-11 6.8595255442011442e-12  1.9999999998139555e+02 -2.0770196508543779e-10 -1.4177504132289711e-10  1.9999999998058345e+02 -1.1248630962464182e-10 -1.5220214317104883e-10  1.9999999998062032e+02 -2.3180080811713416e-11 -6.7374731898173762e-12  1.9999999998142914e+02 -1.1118423364287104e-10 -1.2609627828179065e-10  1.9999999998081492e+02 6.2668185702791552e-11 8.8172992044640869e-11  1.9999999998064345e+02 -6.7823016601019994e-12 -1.7615868437593287e-11  1.9999999998080796e+02 7.8241296733391919e-11 8.4377883138387067e-11  1.9999999998062887e+02 -4.1854553955193541e-11 3.0849423067662190e-11  1.9999999996960497e+02 1.3496896624806708e-10 9.0309087089209288e-13  1.9999999996955472e+02 -7.7568189902922483e-11 -4.5288333948952158e-11  1.9999999996939161e+02 -1.5807130446742498e-10 -1.0369064773698080e-10  1.9999999997023551e+02 -1.0349332942802886e-10 -1.0838481337791236e-10  1.9999999996963530e+02 6.9812793267872857e-11 8.1986163507036274e-11  1.9999999996964709e+02 6.7274589949034305e-11 6.8295647928948437e-11  1.9999999996957601e+02 -8.4756621570315488e-11 -8.1714276641608970e-11  1.9999999997110768e+02 5.4863558439119598e-11 8.2026757898519120e-11  1.9999999997024179e+02 -1.2384743834899264e-10 -1.7331696343250662e-10  1.9999999997028311e+02 -5.9495733004667095e-11 -1.9839102953295266e-12  1.9999999997116342e+02 1.1483531116413152e-10 3.8601643241227741e-11  1.9999999997026040e+02 -1.5935752850060312e-10 -1.5916457964506650e-10  1.9999999997026117e+02 -2.5461952116280379e-11 -3.9874076628766092e-11  1.9999999996813088e+02 1.1341297107863869e-10 5.0027490399475735e-11  1.9999999996804013e+02 -9.1125941872214589e-11 -3.1279213842714902e-11  1.9999999996787841e+02 -1.0852926508387778e-10 -1.1302437612594637e-10  1.9999999996872000e+02 -1.1845184621122663e-10 -8.2492830762663688e-11  1.9999999996809416e+02 7.4210760823456045e-11 5.3677608392219983e-11  1.9999999996806548e+02 8.3187573186234778e-11 4.9737350455184660e-11  1.9999999996801137e+02 -2.5669038587562988e-11 -2.6021329713394610e-11  1.9999999996868456e+02 -1.2258444469094025e-10 -1.7340468529565612e-10  1.9999999996877676e+02 4.2702841866744284e-12 -7.6046448992774226e-11  1.9999999996871739e+02 -1.6598895176285050e-10 -1.0232609373168671e-10  1.9999999996881621e+02 -1.2257597090913823e-10 -8.0250066975728050e-12  1.9999999996647816e+02 4.7195289001675400e-11 3.8466765700286962e-11  1.9999999996632076e+02 -1.3869812512318065e-10 -2.0297849026382686e-11  1.9999999996620824e+02 8.3936952074970773e-12 5.0313397199032787e-12  1.9999999996721016e+02 -8.3145288159389302e-11 -9.9242427506699446e-11  1.9999999996647736e+02 3.3845350375759675e-11 2.0128626650390998e-11  1.9999999996649035e+02 2.8223310600780977e-11 2.0455223934889059e-11  1.9999999996630251e+02 -2.2312277386768207e-11 1.3008284007692229e-11  1.9999999996724489e+02 -1.0404747105555313e-10 -2.2285241090923235e-10  1.9999999996730742e+02 4.6796865501092697e-13 -3.4620791232677754e-11  1.9999999996720874e+02 -1.5110613426953175e-10 -1.1109919687048557e-10  1.9999999996727490e+02 -9.6297188931698048e-11 6.7214303261507143e-11  1.9999999996725799e+02 -7.6787127305165426e-11 -4.0900212185310651e-11  1.9999999997112624e+02 -8.1250298270744998e-11 -1.5775162506524092e-11  1.9999999997089060e+02 -9.6231777370089910e-11 -1.2708721795058349e-10  1.9999999997174507e+02 -1.1369405622042836e-10 -1.0460266568292423e-10  1.9999999997112380e+02 7.0072067637421717e-11 8.9301452024301845e-11  1.9999999997116376e+02 7.4693860508949246e-11 6.8164693889976690e-11  1.9999999997103708e+02 -3.3692101712442241e-11 -1.9300549754371042e-11  1.9999999997113866e+02 9.3606108529886707e-11 9.5292576618842550e-11  1.9999999997108668e+02 -3.5903823571784686e-11 -7.4310650177426377e-11  1.9999999997017281e+02 -1.1795504421582014e-10 -1.0147018721116988e-10  1.9999999997020214e+02 -1.1551966267751866e-10 -8.5375419658642826e-11  1.9999999996953412e+02 -7.9478275969286842e-11 -4.5048043481383913e-11  1.9999999996959258e+02 9.4580945574192108e-11 8.4272838754214733e-11  1.9999999997021746e+02 -1.3090513331414618e-10 -1.5424048033915449e-10  1.9999999997029823e+02 -6.5749089274014800e-11 4.7506440941313920e-11  1.9999999996802853e+02 1.0542210176732036e-11 -5.2614141325425260e-11  1.9999999996869067e+02 -1.1505556339755208e-10 -1.1726791587603423e-10  1.9999999996869064e+02 -1.2802499373792816e-10 -1.0654418405095469e-10  1.9999999996807355e+02 7.1730418447897418e-11 9.2790131088431697e-11  1.9999999996725001e+02 -1.9164843695209901e-10 -9.8193113411347864e-11  1.9999999996722184e+02 -1.1508432723070634e-10 -9.8054800248688728e-11  1.9999999996871978e+02 -9.2279029695002158e-11 -8.6482416412510299e-11  1.9999999996780190e+02 -1.1399868602607435e-10 -1.0576643716267919e-10  1.9999999996808839e+02 -1.3436374269841924e-10 -6.9095563498724514e-11  1.9999999996809663e+02 4.8672056017633677e-11 9.4639043336844055e-11  1.9999999996805511e+02 -4.4960152576890671e-11 -1.0889764684532234e-10  1.9999999996721465e+02 -1.0103087446263331e-10 -9.7749557067703940e-11  1.9999999996622824e+02 3.0964970421903667e-11 2.6672260341085922e-11  1.9999999996637672e+02 -1.5725058061009026e-10 2.2167674591622909e-12  1.9999999996645425e+02 1.8592825812635720e-11 3.8457121966394445e-11  1.9999999996633093e+02 1.8552850493433650e-11 -1.4094889931187414e-11  1.9999999996647301e+02 2.0834552008544089e-11 4.4927486753204768e-11  1.9999999996631396e+02 -9.2135363141939369e-12 -1.4488988237083474e-10  1.9999999996725799e+02 -8.4539158922894823e-11 -1.1224465891843421e-10  1.9999999996731808e+02 -2.7018747952677290e-11 -2.4233207310642128e-11  1.9999999996723440e+02 -1.2273274145541488e-10 -1.1736342294617465e-10  1.9999999996728255e+02 -8.9997291284480356e-11 -2.3011399351904669e-11  1.9999999996960378e+02 -1.0432606462106017e-10 1.7598078890745415e-11  1.9999999996937561e+02 -9.6916261562623237e-11 -6.7830495088181907e-11  1.9999999997020859e+02 -9.6520678427001822e-11 -7.0748351345399345e-11  1.9999999996961927e+02 6.8565028563199867e-11 9.5210909292347977e-11  1.9999999996801100e+02 -7.5657798978916345e-11 -8.3935285369222479e-12  1.9999999996787449e+02 -9.6452297519908491e-11 -7.9352083799516549e-11  1.9999999996868956e+02 -9.2393056689362587e-11 -8.5136147219379990e-11  1.9999999996806989e+02 5.1956474392421405e-11 8.9668874810236485e-11  1.9999999996869133e+02 -1.1817024954951203e-10 -1.3059366420734268e-10  1.9999999996878307e+02 1.1679921163761765e-11 1.1479235912338745e-11  1.9999999996875664e+02 -6.6909544210309171e-11 -4.2842941998533452e-12  1.9999999996723534e+02 -1.5091837321877135e-10 -9.3286273632213931e-11  1.9999999996720385e+02 -1.1981167368747224e-10 -1.0807727033306490e-10  1.9999999996630854e+02 -1.5903212188576663e-10 -1.9477909725341950e-11  1.9999999996650226e+02 5.2146265967597801e-12 2.2239500378605366e-11  1.9999999996721974e+02 -1.1853237442982454e-10 -8.5158603289625538e-11  1.9999999996720601e+02 -1.0879462605636109e-10 -1.4689448910434526e-10  1.9999999997908233e+02 7.7758001354425102e-11 1.5935652925721953e-11  1.9999999997881648e+02 -6.2028667555695209e-11 -5.9411278213759086e-12  1.9999999997904001e+02 -2.1291481804552011e-11 -7.6088469971159095e-11  1.9999999997979015e+02 -8.7634792011977846e-11 1.5005172154588027e-11  1.9999999997910561e+02 1.0736966940348090e-10 1.0397339507520932e-10  1.9999999997900252e+02 5.0195078005790372e-12 -3.8393643368389647e-11  1.9999999997908299e+02 1.2909597925774716e-10 2.9972271830046561e-11  1.9999999998077288e+02 7.9092890152707955e-11 5.9847541290434165e-11  1.9999999997974203e+02 -8.2718951929615372e-11 -1.5651560859261043e-10  1.9999999997982306e+02 -2.0035131621358059e-11 -3.7199760017343711e-11  1.9999999998060008e+02 5.0300930744971552e-13 7.0538856141397215e-11  1.9999999998072542e+02 -2.9277029013573386e-11 -5.0541286174820693e-11  1.9999999998079889e+02 9.6359535480923752e-11 7.0815842589136254e-11  1.9999999997985117e+02 -5.9708670807323587e-11 4.5578355741379190e-11  1.9999999997746048e+02 1.1759105344757446e-10 7.1196900457938539e-11  1.9999999997738666e+02 -2.2455201513165621e-10 -1.7533729492371974e-10  1.9999999997744845e+02 -2.1758452554975205e-11 -2.0586984237242467e-11  1.9999999997819597e+02 -6.0656527667168978e-11 -9.5015773563324416e-11  1.9999999997744433e+02 9.0250303717699819e-11 1.9472392974864263e-11  1.9999999997736174e+02 -6.9711951575556412e-11 -2.1345243196178484e-11  1.9999999997745078e+02 1.4497275332997255e-10 6.0465593376559738e-11  1.9999999997743728e+02 -1.0955956902947246e-10 -1.8258395752293426e-11  1.9999999997747901e+02 7.6968587604321443e-11 6.6282456695745360e-11  1.9999999997739027e+02 -7.2391810324062499e-11 -1.8818120879471184e-11  1.9999999997808200e+02 -1.0453559109053761e-10 -2.4932583795675499e-10  1.9999999997821419e+02 -2.3562542661893561e-11 -4.2985299420657458e-11  1.9999999997817670e+02 -6.1866848052562008e-11 -1.6377454862528483e-11  1.9999999997590371e+02 1.0545825526852844e-10 8.8291139752285103e-12  1.9999999997582188e+02 -2.7626972667253483e-11 -6.7302650772452599e-12  1.9999999997565129e+02 -9.7263109946630262e-11 -1.0470595920208691e-10  1.9999999997652230e+02 -7.7625129145181539e-11 -8.6730073305731245e-11  1.9999999997586698e+02 9.8245219577192876e-11 6.4003782848918684e-11  1.9999999997585550e+02 6.3633865363568878e-11 9.6680158769835318e-11  1.9999999997577928e+02 -6.5091633933083691e-11 1.0093941347384327e-12  1.9999999997650681e+02 -1.3222380566513764e-10 -1.2861380022372393e-10  1.9999999997659671e+02 -5.6800012211365107e-11 -8.2040828226789461e-12  1.9999999997651366e+02 -1.7649680364708911e-10 -1.1991552805645351e-10  1.9999999997654777e+02 -3.3699529274509215e-11 9.1608085634954663e-11  1.9999999997657906e+02 -2.6400049334689913e-11 1.5489871669092782e-12  1.9999999997428037e+02 1.0963421665694970e-10 -1.0141310693507612e-11  1.9999999997419735e+02 -3.4310720316573773e-11 -2.8485239678360676e-11  1.9999999997395543e+02 -1.3778180337293438e-10 -9.9498014667358884e-11  1.9999999997493737e+02 -9.0496913688823378e-11 -8.6190695826062532e-11  1.9999999997413741e+02 -2.6028720215829737e-11 9.7319485076048038e-11  1.9999999997478375e+02 -1.9110163445636476e-10 -1.0962780862957541e-10  1.9999999997427264e+02 9.3674994792454858e-11 7.9344440489623260e-11  1.9999999997428279e+02 5.2231893419613600e-11 5.0490688020811749e-11  1.9999999997419718e+02 -4.6601808154015889e-11 -1.6697288420549948e-11  1.9999999997489056e+02 -1.1889824929413761e-10 -1.9086077368104691e-10  1.9999999997497335e+02 -1.1013140466586573e-11 -2.2190098220650397e-11  1.9999999997484795e+02 -1.6421983880002652e-10 -1.2268305892242299e-10  1.9999999997495723e+02 -2.9412832503647765e-11 8.3024180827988972e-11  1.9999999997499390e+02 2.0893845900560010e-11 -1.4962919503405807e-11  1.9999999997275384e+02 1.1861431093104274e-10 -1.1250418120146698e-11  1.9999999997263939e+02 2.4839546221324656e-11 -1.3332466131721589e-11  1.9999999997249625e+02 -1.4041306920347019e-10 -9.0126227751254289e-11  1.9999999997337594e+02 -9.4589076465041085e-11 -6.6868604092560857e-11  1.9999999997261978e+02 -5.7527930282606251e-11 3.5562022083351961e-11  1.9999999997321783e+02 -2.1660044253297146e-10 -8.0873796414316915e-11  1.9999999997274426e+02 1.1563583235589151e-10 6.2457961340352047e-11  1.9999999997270189e+02 7.0129459646284806e-11 8.5109694631243299e-11  1.9999999997261614e+02 -5.4686718209540003e-11 -1.8595771547116554e-11  1.9999999997330164e+02 -1.1427341397364010e-10 -1.9662734967281528e-10  1.9999999997329962e+02 -1.7378629193408206e-10 -1.0700767507333805e-10  1.9999999997340379e+02 -1.4509705567128648e-12 5.1159679053475020e-11  1.9999999997340089e+02 -1.0506333707011992e-11 -1.6429033166693530e-11  1.9999999997118746e+02 6.7935194063381478e-11 5.5172894981879393e-11  1.9999999997089756e+02 -1.5716220697015883e-10 7.2819057176729638e-12  1.9999999997111445e+02 -5.8927181286768104e-11 1.7341300216677419e-12  1.9999999997183710e+02 -9.1885417611663954e-11 -4.7532187705766576e-11  1.9999999997105300e+02 -7.4116082854497437e-11 -9.3661362645371924e-11  1.9999999997117445e+02 1.0823086343185638e-10 -2.1425947814671778e-11  1.9999999997181325e+02 -1.3801099662879181e-10 -1.6140695033070740e-10  1.9999999997191682e+02 -6.3605403880351074e-11 -5.4252504168820814e-11  1.9999999997183727e+02 3.6428867159406101e-11 -2.7768959025119118e-11  1.9999999997177974e+02 -2.0538031327933203e-10 -8.3731417107510850e-11  1.9999999997021536e+02 -1.5936628628881347e-10 -2.3540292274416922e-10  1.9999999997023028e+02 -9.6185608987466182e-11 -1.9824869927915419e-11  1.9999999996941656e+02 -4.1955750480238955e-11 -5.5789797920612267e-11  1.9999999996963030e+02 7.4256807976000766e-11 -4.8552274984731801e-11  1.9999999997023883e+02 -8.3375373565130801e-11 -3.7850962069168995e-11  1.9999999997656562e+02 -2.9623703200349408e-11 -5.0335702623740198e-11  1.9999999997556978e+02 -8.6066810563036136e-11 -4.2766184711008452e-11  1.9999999997578021e+02 -3.0908022542862139e-11 -3.8934383511969228e-11  1.9999999997585613e+02 1.2382344358852313e-10 1.0366458177021929e-11  1.9999999997655928e+02 -1.0490077373387715e-10 -2.5750752313676513e-10  1.9999999997489377e+02 -5.5313741539025676e-11 -5.5532665491359024e-11  1.9999999997395577e+02 -7.2781449773339526e-11 -3.3724068769693269e-11  1.9999999997418763e+02 -2.7784786413646800e-11 -4.0281027672244870e-11  1.9999999997428719e+02 1.1682404234636545e-10 -2.2099034261196860e-12  1.9999999997489459e+02 -1.1300336691166027e-10 -2.0728524070360940e-10  1.9999999997495701e+02 -1.0644371749644641e-10 -1.2314876390209033e-12  1.9999999997333586e+02 -4.6042373297760964e-11 -6.6754422329466835e-11  1.9999999997243864e+02 -7.9074973292095879e-11 -6.0020614753820234e-11  1.9999999997264320e+02 -4.2478726057545307e-11 -4.1696264997233447e-11  1.9999999997275276e+02 1.1799632903793484e-10 -3.0051170820468732e-11  1.9999999997331363e+02 -1.0316521244256589e-10 -1.8968774083846011e-10  1.9999999997339839e+02 -6.6699899945026824e-11 2.6225814263275481e-12  1.9999999997181610e+02 -6.6839943514885084e-11 -3.0181884383119830e-11  1.9999999997176820e+02 -1.2023818439380735e-10 -2.9214993587311280e-10  1.9999999997098556e+02 -7.1752930078915469e-11 -7.5775183538577000e-11  1.9999999997116848e+02 1.1466142095689800e-10 -6.9137740735498092e-11  1.9999999997180743e+02 -8.7830749759094376e-11 -6.7816510461176423e-11  1.9999999997903041e+02 -8.3227918514813861e-12 -6.6563990351784008e-11  1.9999999997885996e+02 -1.1569296788312756e-10 -1.1768674912968273e-10  1.9999999997973879e+02 -9.3136635677779403e-11 -5.3489805764991925e-11  1.9999999997904197e+02 9.0095145218847304e-11 8.5101690616645119e-11  1.9999999997904087e+02 9.9013208370864127e-12 9.4916070167026300e-11  1.9999999997902233e+02 -3.6208470198744488e-11 -1.3863754311593320e-10  1.9999999997978549e+02 -7.9730104175225638e-11 -6.5064089950249663e-11  1.9999999997972571e+02 -1.6972511086871340e-10 -6.7815638990791620e-11  1.9999999997977622e+02 -9.1394171205672234e-11 3.2403853395134686e-11  1.9999999998061406e+02 2.8595147275731736e-11 -1.7619053277897853e-11  1.9999999997737615e+02 -4.1076449645738436e-11 -8.2456223972639331e-11  1.9999999997723557e+02 -8.1317108415973318e-11 -1.1090852025912253e-10  1.9999999997813734e+02 -9.1117878467398903e-11 -1.0619397908093991e-10  1.9999999997751351e+02 1.0196077937685065e-10 7.3030301429683898e-11  1.9999999997750359e+02 3.1774042746875877e-12 1.0724739322331689e-10  1.9999999997740821e+02 -1.0171620688449706e-10 -6.3068865411655330e-11  1.9999999997813052e+02 -9.4892627441442142e-11 -1.8956266118668272e-10  1.9999999997818398e+02 -5.7169360193405426e-11 -8.9138818978440389e-11  1.9999999997810258e+02 -2.0788169445619692e-10 -1.3224119164692286e-10  1.9999999997814461e+02 -9.7494358073458656e-12 -4.1150197859104477e-11  1.9999999997579698e+02 -2.3058190116318449e-11 -5.7096722396743994e-11  1.9999999997562045e+02 -5.8881546290825028e-11 -1.3712582727024153e-10  1.9999999997653489e+02 -9.9327038315642341e-11 -1.1032117647743205e-10  1.9999999997589691e+02 8.8641104389333979e-11 3.4365959983935895e-11  1.9999999997589288e+02 3.3554976557098580e-12 9.6508402164100025e-11  1.9999999997579312e+02 -6.1788757761367099e-11 -2.4448122819687198e-11  1.9999999997648467e+02 -1.1210825684291382e-10 -1.8095563468492350e-10  1.9999999997657233e+02 -3.9118272324072472e-12 -1.1714462345724030e-10  1.9999999997653674e+02 -1.8936631310269781e-10 -1.2351980828753576e-10  1.9999999997658233e+02 -5.9141342817570389e-12 -3.7103041653840841e-11  1.9999999997418007e+02 -1.7658329397037807e-11 -2.6001985839407259e-11  1.9999999997401886e+02 -1.0755519187294589e-10 -9.2725967525270265e-11  1.9999999997492648e+02 -9.3521982111576323e-11 -8.1249164034872771e-11  1.9999999997428520e+02 6.9744192059782604e-11 5.6156920656176151e-11  1.9999999997430967e+02 5.1959221006643088e-12 1.0632689595112488e-10  1.9999999997417336e+02 -6.8778599234896423e-11 -2.9959320254893677e-11  1.9999999997489797e+02 -9.2445609948303125e-11 -2.0055532410987597e-10  1.9999999997497591e+02 -2.8145906399923747e-11 -1.3878136695609217e-10  1.9999999997486862e+02 -2.0428203751508405e-10 -7.3750146760735040e-11  1.9999999997493040e+02 -1.9672353775232112e-11 -4.8937546402448804e-11  1.9999999997260497e+02 -5.4990755320221041e-12 -1.0280257095881685e-10  1.9999999997250512e+02 -1.3954591782062525e-10 -1.1491500526410889e-10  1.9999999997338560e+02 -1.0148502164929198e-10 -9.2599887087218300e-11  1.9999999997269558e+02 6.4988608000992472e-11 9.0961899057186284e-11  1.9999999997268270e+02 2.9564618129399084e-11 9.0252193854404643e-11  1.9999999997258999e+02 -8.8235496333131167e-11 -1.9614611619945293e-11  1.9999999997330528e+02 -1.2435040858647839e-10 -2.1213549242903918e-10  1.9999999997338085e+02 -2.6558993229673560e-11 -1.2589401853626545e-10  1.9999999997330585e+02 -2.2980148136306712e-10 -9.1320806055959041e-11  1.9999999997337420e+02 -2.4484250040984502e-11 -3.0906651182832421e-11  1.9999999997110703e+02 -2.5328245989291368e-11 -5.1053994843847577e-11  1.9999999997104726e+02 -2.5216095210849116e-11 -4.7921042559117770e-11  1.9999999997183076e+02 -8.4246858908161597e-11 -1.0801228676988381e-10  1.9999999997115088e+02 2.5780951076946848e-11 6.2394261321836604e-11  1.9999999997109819e+02 -2.0093665554348197e-11 2.3593220820970748e-11  1.9999999997178330e+02 -1.6634035967566397e-10 -1.3577831372420782e-10  1.9999999997180237e+02 -1.7426478103399541e-10 -1.48