<?xml version="1.0"?>
<VTKFile type="UnstructuredGrid"  version="0.1"  >
<UnstructuredGrid>
<Piece  NumberOfPoints="3786" NumberOfCells="18490">
<Points>
<DataArray  type="Float64"  NumberOfComponents="3"  format="ascii">25 30 15  25 30 16.25  25 28.75 16.25  23.75 28.75 16.25  25 30 17.5  25 28.75 17.5  37.5 27.5 2.5  37.5 27.5 3.75  37.5 26.25 3.75  36.25 26.25 3.75  37.5 27.5 5  35 27.5 2.5  36.25 27.5 3.75  36.25 27.5 2.5  35 27.5 3.75  35 27.5 5  36.25 27.5 5  38.75 27.5 3.75  38.75 27.5 2.5  38.75 26.25 3.75  40 27.5 2.5  40 27.5 3.75  40 27.5 5  38.75 27.5 5  38.75 26.25 5  36.25 27.5 6.25  36.25 26.25 6.25  37.5 27.5 6.25  37.5 27.5 7.5  35 27.5 6.25  35 27.5 7.5  36.25 27.5 7.5  38.75 27.5 6.25  38.75 26.25 6.25  40 27.5 6.25  40 27.5 7.5  38.75 27.5 7.5  32.5 27.5 7.5  33.75 27.5 8.75  33.75 27.5 7.5  33.75 26.25 8.75  35 27.5 8.75  35 27.5 10  32.5 27.5 10  33.75 27.5 10  33.75 26.25 10  32.5 27.5 8.75  38.75 27.5 8.75  38.75 26.25 8.75  40 27.5 8.75  40 27.5 10  37.5 27.5 8.75  37.5 27.5 10  38.75 27.5 10  30 27.5 10  31.25 27.5 11.25  31.25 27.5 10  31.25 26.25 11.25  32.5 27.5 11.25  32.5 27.5 12.5  30 27.5 12.5  31.25 27.5 12.5  31.25 26.25 12.5  30 27.5 11.25  35 27.5 11.25  35 26.25 11.25  33.75 26.25 11.25  35 27.5 12.5  33.75 27.5 11.25  33.75 27.5 12.5  36.25 27.5 11.25  36.25 27.5 10  36.25 26.25 11.25  37.5 27.5 11.25  37.5 27.5 12.5  36.25 27.5 12.5  40 27.5 12.5  40 26.25 12.5  38.75 26.25 12.5  38.75 26.25 11.25  38.75 27.5 11.25  40 27.5 11.25  38.75 27.5 12.5  32.5 27.5 13.75  32.5 26.25 13.75  31.25 26.25 13.75  32.5 27.5 15  31.25 27.5 13.75  30 27.5 13.75  30 27.5 15  31.25 27.5 15  35 27.5 13.75  35 26.25 13.75  33.75 26.25 13.75  35 27.5 15  35 26.25 15  33.75 26.25 15  33.75 27.5 13.75  33.75 27.5 15  37.5 27.5 13.75  37.5 26.25 13.75  36.25 26.25 13.75  37.5 27.5 15  37.5 25 15  37.5 26.25 15  36.25 26.25 15  36.25 27.5 13.75  36.25 27.5 15  40 27.5 13.75  40 26.25 13.75  38.75 26.25 13.75  40 27.5 15  40 25 15  40 26.25 15  38.75 26.25 15  38.75 25 15  38.75 27.5 13.75  38.75 27.5 15  32.5 27.5 16.25  32.5 26.25 16.25  31.25 26.25 16.25  32.5 27.5 17.5  32.5 25 17.5  32.5 26.25 17.5  31.25 26.25 17.5  31.25 27.5 16.25  30 27.5 17.5  31.25 27.5 17.5  30 27.5 16.25  35 27.5 16.25  35 26.25 16.25  33.75 26.25 16.25  35 27.5 17.5  35 25 17.5  35 26.25 17.5  33.75 26.25 17.5  33.75 25 17.5  33.75 27.5 16.25  33.75 27.5 17.5  37.5 26.25 16.25  36.25 26.25 16.25  37.5 27.5 16.25  37.5 27.5 17.5  37.5 25 16.25  37.5 25 17.5  37.5 26.25 17.5  36.25 26.25 17.5  36.25 27.5 16.25  36.25 27.5 17.5  38.75 26.25 16.25  40 26.25 16.25  40 27.5 16.25  40 27.5 17.5  40 25 16.25  40 25 17.5  40 26.25 17.5  38.75 26.25 17.5  38.75 25 17.5  38.75 27.5 16.25  38.75 27.5 17.5  32.5 26.25 18.75  31.25 26.25 18.75  33.75 26.25 18.75  35 26.25 18.75  35 27.5 18.75  35 27.5 20  35 25 18.75  35 25 20  35 26.25 20  33.75 26.25 20  33.75 27.5 18.75  37.5 26.25 18.75  36.25 26.25 18.75  37.5 27.5 18.75  37.5 27.5 20  37.5 25 18.75  37.5 25 20  37.5 26.25 20  36.25 26.25 20  36.25 25 20  36.25 27.5 18.75  36.25 27.5 20  38.75 26.25 18.75  38.75 27.5 18.75  40 27.5 18.75  40 27.5 20  35 26.25 21.25  33.75 26.25 21.25  36.25 26.25 21.25  42.5 27.5 0  42.5 27.5 1.25  42.5 26.25 1.25  41.25 26.25 1.25  42.5 26.25 0  41.25 26.25 0  42.5 27.5 2.5  42.5 26.25 2.5  41.25 26.25 2.5  40 27.5 0  41.25 27.5 1.25  41.25 27.5 0  41.25 27.5 2.5  40 27.5 1.25  45 25 0  45 26.25 1.25  45 26.25 0  43.75 26.25 1.25  43.75 26.25 0  45 27.5 0  45 27.5 1.25  45 27.5 2.5  45 25 1.25  45 25 2.5  45 26.25 2.5  43.75 26.25 2.5  43.75 27.5 1.25  43.75 27.5 0  43.75 27.5 2.5  47.5 25 0  47.5 26.25 1.25  47.5 26.25 0  46.25 26.25 1.25  46.25 26.25 0  47.5 27.5 0  47.5 27.5 1.25  47.5 27.5 2.5  47.5 25 2.5  47.5 26.25 2.5  46.25 26.25 2.5  46.25 27.5 1.25  46.25 27.5 0  46.25 27.5 2.5  50 27.5 0  50 27.5 1.25  50 26.25 1.25  48.75 26.25 1.25  50 27.5 2.5  50 25 2.5  50 26.25 2.5  48.75 26.25 2.5  48.75 26.25 0  48.75 27.5 1.25  48.75 27.5 0  48.75 27.5 2.5  46.25 28.75 1.25  46.25 28.75 0  47.5 28.75 1.25  47.5 28.75 0  47.5 30 0  47.5 30 1.25  47.5 30 2.5  47.5 28.75 2.5  46.25 28.75 2.5  48.75 28.75 1.25  48.75 28.75 0  50 28.75 1.25  50 28.75 0  50 30 0  50 30 1.25  50 30 2.5  50 28.75 2.5  48.75 28.75 2.5  48.75 30 1.25  48.75 30 0  48.75 30 2.5  40 26.25 3.75  40 26.25 5  42.5 27.5 3.75  42.5 26.25 3.75  41.25 26.25 3.75  42.5 27.5 5  42.5 25 5  42.5 26.25 5  41.25 26.25 5  41.25 27.5 3.75  41.25 27.5 5  45 26.25 3.75  43.75 26.25 3.75  45 27.5 3.75  45 27.5 5  45 25 5  45 26.25 5  43.75 26.25 5  43.75 25 5  43.75 27.5 3.75  43.75 27.5 5  47.5 26.25 3.75  46.25 26.25 3.75  47.5 27.5 3.75  47.5 27.5 5  47.5 25 5  47.5 26.25 5  46.25 26.25 5  46.25 27.5 3.75  46.25 27.5 5  50 26.25 3.75  48.75 26.25 3.75  50 27.5 3.75  50 27.5 5  50 25 3.75  50 25 5  50 26.25 5  48.75 26.25 5  48.75 27.5 3.75  48.75 27.5 5  48.75 28.75 3.75  50 28.75 3.75  50 30 3.75  50 30 5  50 28.75 5  48.75 28.75 5  48.75 30 3.75  40 26.25 6.25  42.5 26.25 6.25  41.25 26.25 6.25  42.5 27.5 6.25  42.5 27.5 7.5  42.5 25 6.25  42.5 25 7.5  42.5 26.25 7.5  41.25 26.25 7.5  41.25 27.5 6.25  41.25 27.5 7.5  43.75 26.25 6.25  45 26.25 6.25  45 27.5 6.25  45 27.5 7.5  45 25 6.25  45 25 7.5  45 26.25 7.5  43.75 26.25 7.5  43.75 25 7.5  43.75 27.5 6.25  43.75 27.5 7.5  47.5 26.25 6.25  46.25 26.25 6.25  47.5 27.5 6.25  47.5 27.5 7.5  47.5 25 7.5  47.5 26.25 7.5  46.25 26.25 7.5  46.25 25 7.5  46.25 27.5 6.25  46.25 27.5 7.5  50 26.25 6.25  48.75 26.25 6.25  50 27.5 6.25  50 27.5 7.5  50 25 7.5  50 26.25 7.5  48.75 26.25 7.5  48.75 25 7.5  48.75 27.5 6.25  48.75 27.5 7.5  46.25 25 8.75  46.25 23.75 8.75  47.5 25 8.75  47.5 25 10  45 25 10  46.25 25 10  46.25 23.75 10  45 25 8.75  42.5 26.25 8.75  41.25 26.25 8.75  42.5 27.5 8.75  42.5 27.5 10  42.5 26.25 10  41.25 26.25 10  41.25 27.5 8.75  41.25 27.5 10  43.75 26.25 8.75  45 26.25 8.75  45 27.5 8.75  45 27.5 10  45 26.25 10  43.75 26.25 10  43.75 27.5 8.75  43.75 27.5 10  46.25 26.25 8.75  47.5 26.25 8.75  47.5 27.5 8.75  47.5 27.5 10  47.5 26.25 10  46.25 26.25 10  46.25 27.5 8.75  46.25 27.5 10  48.75 26.25 8.75  50 26.25 8.75  50 27.5 8.75  50 27.5 10  50 25 10  50 26.25 10  48.75 26.25 10  48.75 25 10  48.75 27.5 8.75  48.75 27.5 10  46.25 25 11.25  46.25 23.75 11.25  47.5 25 11.25  47.5 25 12.5  45 25 11.25  45 25 12.5  46.25 25 12.5  48.75 25 11.25  48.75 23.75 11.25  50 25 11.25  50 25 12.5  48.75 25 12.5  48.75 23.75 12.5  40 26.25 11.25  42.5 27.5 11.25  42.5 26.25 11.25  41.25 26.25 11.25  42.5 27.5 12.5  42.5 25 12.5  42.5 26.25 12.5  41.25 26.25 12.5  41.25 27.5 11.25  41.25 27.5 12.5  45 26.25 11.25  43.75 26.25 11.25  45 27.5 11.25  45 27.5 12.5  45 26.25 12.5  43.75 26.25 12.5  43.75 27.5 11.25  43.75 27.5 12.5  46.25 26.25 11.25  47.5 26.25 11.25  47.5 27.5 11.25  47.5 27.5 12.5  47.5 26.25 12.5  46.25 26.25 12.5  46.25 27.5 11.25  46.25 27.5 12.5  48.75 26.25 11.25  50 26.25 11.25  50 27.5 11.25  50 27.5 12.5  50 26.25 12.5  48.75 26.25 12.5  48.75 27.5 11.25  48.75 27.5 12.5  47.5 25 13.75  47.5 23.75 13.75  46.25 23.75 13.75  47.5 25 15  46.25 25 13.75  45 25 15  46.25 25 15  46.25 23.75 15  45 25 13.75  48.75 25 13.75  48.75 23.75 13.75  50 25 13.75  50 25 15  48.75 25 15  48.75 23.75 15  42.5 26.25 13.75  41.25 26.25 13.75  42.5 27.5 13.75  42.5 27.5 15  42.5 25 15  42.5 26.25 15  41.25 26.25 15  41.25 25 15  41.25 27.5 13.75  41.25 27.5 15  45 26.25 13.75  43.75 26.25 13.75  45 27.5 13.75  45 27.5 15  45 26.25 15  43.75 26.25 15  43.75 25 15  43.75 27.5 13.75  43.75 27.5 15  46.25 26.25 13.75  47.5 26.25 13.75  47.5 27.5 13.75  47.5 27.5 15  47.5 26.25 15  46.25 26.25 15  46.25 27.5 13.75  46.25 27.5 15  48.75 26.25 13.75  50 26.25 13.75  50 27.5 13.75  50 27.5 15  50 26.25 15  48.75 26.25 15  48.75 27.5 13.75  48.75 27.5 15  42.5 25 16.25  42.5 23.75 16.25  41.25 23.75 16.25  42.5 25 17.5  42.5 22.5 17.5  42.5 23.75 17.5  41.25 23.75 17.5  41.25 25 16.25  41.25 25 17.5  45 25 16.25  45 23.75 16.25  43.75 23.75 16.25  45 25 17.5  45 22.5 17.5  45 23.75 17.5  43.75 23.75 17.5  43.75 25 16.25  43.75 25 17.5  47.5 25 16.25  47.5 23.75 16.25  46.25 23.75 16.25  47.5 25 17.5  46.25 25 16.25  46.25 23.75 17.5  46.25 25 17.5  48.75 25 16.25  48.75 23.75 16.25  50 25 16.25  50 25 17.5  48.75 25 17.5  48.75 23.75 17.5  41.25 26.25 16.25  42.5 26.25 16.25  42.5 27.5 16.25  42.5 27.5 17.5  42.5 26.25 17.5  41.25 26.25 17.5  41.25 27.5 16.25  41.25 27.5 17.5  43.75 26.25 16.25  45 26.25 16.25  45 27.5 16.25  45 27.5 17.5  45 26.25 17.5  43.75 26.25 17.5  43.75 27.5 16.25  43.75 27.5 17.5  46.25 26.25 16.25  47.5 26.25 16.25  47.5 27.5 16.25  47.5 27.5 17.5  47.5 26.25 17.5  46.25 26.25 17.5  46.25 27.5 16.25  46.25 27.5 17.5  48.75 26.25 16.25  50 26.25 16.25  50 27.5 16.25  50 27.5 17.5  50 26.25 17.5  48.75 26.25 17.5  48.75 27.5 16.25  48.75 27.5 17.5  42.5 23.75 18.75  41.25 23.75 18.75  42.5 25 18.75  42.5 25 20  42.5 22.5 18.75  42.5 22.5 20  42.5 23.75 20  41.25 25 18.75  45 23.75 18.75  43.75 23.75 18.75  45 25 18.75  45 25 20  45 22.5 20  45 23.75 20  43.75 23.75 20  43.75 25 18.75  43.75 25 20  47.5 25 18.75  47.5 23.75 18.75  46.25 23.75 18.75  47.5 25 20  47.5 22.5 20  47.5 23.75 20  46.25 23.75 20  46.25 25 18.75  46.25 25 20  50 25 18.75  50 23.75 18.75  48.75 23.75 18.75  50 25 20  48.75 25 18.75  48.75 25 20  41.25 26.25 18.75  42.5 26.25 18.75  42.5 27.5 18.75  42.5 27.5 20  42.5 26.25 20  41.25 27.5 18.75  43.75 26.25 18.75  45 26.25 18.75  45 27.5 18.75  45 27.5 20  45 26.25 20  43.75 26.25 20  43.75 27.5 18.75  43.75 27.5 20  46.25 26.25 18.75  47.5 26.25 18.75  47.5 27.5 18.75  47.5 27.5 20  47.5 26.25 20  46.25 26.25 20  46.25 27.5 18.75  46.25 27.5 20  48.75 26.25 18.75  50 26.25 18.75  50 27.5 18.75  50 27.5 20  50 26.25 20  48.75 26.25 20  48.75 27.5 18.75  48.75 27.5 20  45 23.75 21.25  43.75 23.75 21.25  46.25 23.75 21.25  43.75 26.25 21.25  43.75 27.5 21.25  46.25 26.25 21.25  47.5 26.25 21.25  47.5 27.5 21.25  46.25 27.5 21.25  48.75 26.25 21.25  50 26.25 21.25  50 27.5 21.25  50 27.
[...]
<PointData  Vectors="u"> 
<DataArray  type="Float64"  Name="u"  NumberOfComponents="3" format="ascii">1.9999999998249962e+02 4.3159985714649954e-11 8.0751380282240682e-11  1.9999999998227312e+02 -1.0148118822587656e-12 1.0457590331023067e-11  1.9999999998228751e+02 -1.3117616701196346e-10 -1.0490200571823252e-10  1.9999999998310579e+02 -1.0809253965780158e-10 -8.9016287695613402e-11  1.9999999998247890e+02 9.5854107427687567e-11 9.8342589752924785e-11  1.9999999998227932e+02 -4.8250296657969733e-11 1.2110381496883569e-11  1.9999999997431132e+02 1.2579613347686045e-10 1.6682210555102106e-10  1.9999999997423356e+02 -5.3227929716124681e-11 -2.9777745858144060e-11  1.9999999997410600e+02 -7.0768763975666223e-11 -1.1121700616181701e-10  1.9999999997490627e+02 -8.2166427239054924e-11 -8.1398078869768950e-11  1.9999999997432008e+02 1.3664071811557258e-10 1.0992488358149076e-10  1.9999999997592951e+02 9.5759782730563763e-11 1.4596345695256536e-10  1.9999999997496599e+02 -1.0963944879860979e-10 -7.0780207568146235e-11  1.9999999997506077e+02 -5.1854207975805755e-11 5.7258665859887272e-11  1.9999999997583896e+02 -9.6601730906046686e-11 8.7116495798784557e-12  1.9999999997593562e+02 1.0571172640095290e-10 7.3454055004414983e-11  1.9999999997506796e+02 -6.0691585965295169e-11 7.7696561062067396e-12  1.9999999997333836e+02 -1.2718179801497066e-10 -9.5510622958632354e-11  1.9999999997343457e+02 -6.0546224540342608e-11 9.6155170133843714e-11  1.9999999997338222e+02 -1.8167721114567869e-11 -6.9095031274456737e-11  1.9999999997278687e+02 9.3017246793534620e-11 1.6533494674287606e-10  1.9999999997261332e+02 3.9125413752295861e-11 3.2932330482213763e-11  1.9999999997279019e+02 9.9944634700576903e-11 8.5831708688880195e-11  1.9999999997340251e+02 -9.2000337269879733e-11 3.8277636887976334e-11  1.9999999997336056e+02 -1.3065230395218595e-11 -1.9050511780031003e-10  1.9999999997495246e+02 -1.2118333042498388e-10 -9.1263607761423397e-11  1.9999999997494413e+02 -7.7628846696520185e-11 -5.4383373414064467e-11  1.9999999997426679e+02 -7.5610813002150846e-11 2.3681201255579698e-11  1.9999999997432315e+02 1.3399754189532496e-10 1.2314739701676452e-10  1.9999999997586343e+02 -5.7881076437892387e-11 4.5212625134253599e-11  1.9999999997595657e+02 1.2870131283661441e-10 1.2076900091622038e-10  1.9999999997503988e+02 -5.0554001642963928e-11 7.9561732973742877e-11  1.9999999997330795e+02 -1.5288499819012671e-10 -9.2715375586766865e-11  1.9999999997337582e+02 -2.7314202372914284e-11 -5.8237387722445273e-11  1.9999999997263023e+02 -3.2317111139089147e-15 3.5895780019775194e-11  1.9999999997277212e+02 1.1336974719074083e-10 1.0900778883282547e-10  1.9999999997338622e+02 -5.6693040977259640e-11 4.7312445531550713e-11  1.9999999997752113e+02 1.0106694505227044e-10 1.2807682910254070e-10  1.9999999997651241e+02 -1.4562895004384897e-10 -1.0504755024207053e-10  1.9999999997660746e+02 -5.3733380615162865e-11 6.3032138956930762e-11  1.9999999997653995e+02 -6.6092747227086401e-11 -5.6452140932385531e-11  1.9999999997583689e+02 -6.5844827313171242e-11 1.6924543658185058e-11  1.9999999997592593e+02 1.2416378347995478e-10 1.0514711052974473e-10  1.9999999997753244e+02 1.1549095067218109e-10 1.1083019931958187e-10  1.9999999997662508e+02 -8.2216467956495268e-11 2.0188091066665345e-11  1.9999999997653288e+02 -4.2159723095055022e-11 -2.5227714554378815e-10  1.9999999997745635e+02 -5.7426171834866460e-11 -6.0692289448618932e-11  1.9999999997332594e+02 -1.2878255067504290e-10 -1.0664069210236299e-10  1.9999999997339540e+02 -3.0158560417679569e-11 -5.0298429615758516e-11  1.9999999997261838e+02 1.7212834179422401e-11 4.3275900692423442e-14  1.9999999997276683e+02 9.8011293576295462e-11 1.2690199305588466e-10  1.9999999997423876e+02 -4.3016666875464371e-11 -3.1105537398406306e-11  1.9999999997432971e+02 1.2724080373026267e-10 1.0379221906221731e-10  1.9999999997341914e+02 -9.6177764229537708e-11 5.0507872298587271e-11  1.9999999997914790e+02 8.1670784387284128e-11 8.6856052211365552e-11  1.9999999997814172e+02 -1.1652035700063977e-10 -6.4811868822767461e-11  1.9999999997823014e+02 -7.0546574887736803e-11 -1.9611023597378597e-11  1.9999999997814774e+02 -9.4143607724215011e-11 -8.1079708448901540e-11  1.9999999997745789e+02 -5.7811330540431497e-11 6.1685722949010466e-12  1.9999999997752730e+02 1.1599130996288312e-10 8.0145619983752849e-11  1.9999999997913892e+02 8.9889217220816775e-11 1.1915295318383341e-10  1.9999999997822707e+02 -5.4025786498376478e-11 3.7846745169791261e-12  1.9999999997812250e+02 -9.1467309187112467e-11 -1.4314543221696934e-10  1.9999999997904553e+02 -8.7394842602669524e-11 -1.5272418118196128e-11  1.9999999997585999e+02 -4.0268331664798311e-11 -9.8882645562003673e-12  1.9999999997569620e+02 -7.5432553374578296e-11 -9.8242076081247655e-11  1.9999999997651250e+02 -7.1638024345319789e-11 -3.8371822979457879e-11  1.9999999997591084e+02 9.5919931210081305e-11 8.2538924312199476e-11  1.9999999997652452e+02 -1.2985527236790700e-10 -9.6455243651794460e-11  1.9999999997662076e+02 -8.7825816446262296e-11 -1.2132859758150854e-11  1.9999999997492108e+02 -1.2340710582591391e-10 -7.0547609138625506e-11  1.9999999997501436e+02 -4.2036084928775316e-11 2.9834177796093837e-11  1.9999999997495379e+02 -7.0327685937839109e-11 -8.3991975537924026e-11  1.9999999997426059e+02 -7.9209319663098059e-11 -1.4515142558219094e-11  1.9999999997431070e+02 9.2023518492552914e-11 1.1345405090605163e-10  1.9999999997506276e+02 -8.7738362348993753e-11 2.7993442599758287e-11  1.9999999997276470e+02 1.1281371640546440e-10 5.9283608238194635e-11  1.9999999997256410e+02 -2.3499183670446168e-11 3.8401367665690379e-11  1.9999999997333529e+02 -5.7206823953073595e-11 -1.9990860110788074e-10  1.9999999997341382e+02 -5.6746033853828833e-11 -7.9522714518186652e-11  1.9999999997337585e+02 -1.2974014995460697e-10 -9.0181186024266008e-11  1.9999999997256887e+02 -3.2912345456785570e-11 2.0312520051380482e-11  1.9999999997343946e+02 -4.9258970016539735e-11 9.4142137907726313e-12  1.9999999997742813e+02 -7.8927362418928175e-11 -2.7155369795308066e-11  1.9999999997724839e+02 -1.2954776206344330e-10 -5.9834079588848770e-11  1.9999999997814635e+02 -6.7129395077823955e-11 -6.8717403788662963e-11  1.9999999997749939e+02 8.1004954161339002e-11 8.7538205023882300e-11  1.9999999997814524e+02 -1.6669929102971705e-10 -9.4384321366192826e-11  1.9999999997903601e+02 -6.4216658884485600e-11 -1.4643671276147356e-11  1.9999999997913218e+02 1.1857056374861560e-10 1.2672311020301525e-10  1.9999999997819882e+02 -8.7408456848083647e-11 1.6815430579512735e-11  1.9999999997584274e+02 -4.7766719826124012e-11 -1.8563779907531818e-11  1.9999999997569458e+02 -1.2144919589402770e-10 -1.0415465279448388e-10  1.9999999997653543e+02 -1.0693729022034349e-10 -1.0684524252273717e-10  1.9999999997593639e+02 1.1047558555215730e-10 1.1305351241489474e-10  1.9999999997585786e+02 -1.2306899753060860e-11 1.5731715129935700e-11  1.9999999997651281e+02 -9.3119913988925705e-11 -1.6514974484981204e-10  1.9999999997653597e+02 -1.1220952124313728e-10 -1.2429361767312984e-10  1.9999999997662516e+02 -6.9975977010525871e-11 3.7683317647128779e-11  1.9999999997423814e+02 -1.0088454392312670e-10 -2.7733094974575496e-11  1.9999999997401679e+02 -7.4281812057834956e-11 -7.4923680825408148e-11  1.9999999997498355e+02 -8.1601743284542621e-11 -1.1445505444123290e-10  1.9999999997433400e+02 8.5485015902984521e-11 9.5614402206044656e-11  1.9999999997434352e+02 1.1257187678140299e-10 9.8451380601047697e-11  1.9999999997422921e+02 -3.4935997811073164e-11 -1.4261086331703910e-12  1.9999999997494979e+02 -1.1974783884781800e-10 -1.7575140292221419e-10  1.9999999997496070e+02 -1.8305946674481604e-10 -1.2199548992099992e-10  1.9999999997503642e+02 -9.1965739131290491e-11 1.3692700033414888e-11  1.9999999997260471e+02 -5.0035662814323349e-11 1.8167034803031886e-11  1.9999999997253832e+02 -7.1236626112873068e-11 -7.4358011744815859e-11  1.9999999997336306e+02 -6.1161055098773695e-11 -4.8015658018225652e-11  1.9999999997272275e+02 8.5501400247235518e-11 7.3364780808801641e-11  1.9999999997275916e+02 1.0180949687631000e-10 1.0048853143185319e-10  1.9999999997255605e+02 -5.2779568792137993e-13 4.8777770442458123e-12  1.9999999997335098e+02 -8.2757949893697791e-11 -1.7961840042095183e-10  1.9999999997340632e+02 2.2591505928115006e-11 3.6645219912882822e-12  1.9999999997334911e+02 -1.4138656146191928e-10 -7.0776120703808029e-11  1.9999999997345677e+02 -8.8299695451420423e-11 -9.1838346340395561e-12  1.9999999997743163e+02 -6.7550204656652887e-11 6.2719513735622819e-12  1.9999999997726803e+02 -1.2490382621717345e-10 -1.0793269391478984e-10  1.9999999997813097e+02 -8.5047041925639001e-11 -9.3704834331381500e-11  1.9999999997751507e+02 9.0970959735662527e-11 9.7643220374260720e-11  1.9999999997751539e+02 8.7086395103390364e-11 8.4137937862375853e-11  1.9999999997740792e+02 -2.1727499587645809e-11 4.3015941118621732e-11  1.9999999997816144e+02 -1.0888857316112437e-10 -1.5908131892648363e-10  1.9999999997811858e+02 -1.2779852239411742e-10 -1.0959156064470464e-10  1.9999999997914114e+02 7.7200209752769267e-11 9.8624548726969419e-11  1.9999999997818225e+02 -4.1697344510164768e-11 -1.7999332468311184e-11  1.9999999997904064e+02 -5.3419824522862516e-11 -4.5840266460103466e-11  1.9999999997585721e+02 -3.5109031786340759e-11 -2.8957237516188985e-11  1.9999999997560028e+02 -1.2915050713609885e-10 -7.5855428064085554e-11  1.9999999997656465e+02 -9.4989203267970896e-11 -5.0733766001766481e-11  1.9999999997593142e+02 8.2831849283441891e-11 9.5817536451283425e-11  1.9999999997592050e+02 1.1347253846143478e-10 6.9800059437677582e-11  1.9999999997583154e+02 -7.2910739469900358e-11 4.7156081417067798e-12  1.9999999997654422e+02 -1.1730874353184698e-10 -1.7300791118211094e-10  1.9999999997663068e+02 2.5131558233416548e-11 -2.4889284703229993e-11  1.9999999997653757e+02 -1.2360134540005682e-10 -1.3461008557692958e-10  1.9999999997660561e+02 -8.7634088599649340e-11 4.1993060139637591e-11  1.9999999997404279e+02 -1.0615899586874042e-10 -1.1720824942920013e-10  1.9999999997497980e+02 -7.4001629266327154e-11 -8.8081510164142645e-11  1.9999999997421597e+02 -1.1059734548453015e-10 -4.4821238183040540e-11  1.9999999997430825e+02 9.6558896766707050e-11 1.0153499697553191e-10  1.9999999997423217e+02 4.5044499435394910e-11 -1.3292413605293462e-11  1.9999999997432877e+02 8.4530034633015381e-11 7.6172057005905655e-11  1.9999999997425667e+02 1.1794196185254902e-11 -1.8850233703657593e-11  1.9999999997491295e+02 -1.2862698854550979e-10 -2.1185486436543137e-10  1.9999999997494311e+02 -1.1380535455842136e-10 -1.0024479115771252e-10  1.9999999997501880e+02 -1.1457386908187484e-11 2.1205490527426285e-12  1.9999999997334163e+02 -7.7489407973723693e-11 -1.0756146245552889e-10  1.9999999997256552e+02 -8.8555598712409465e-11 -1.2648503698399206e-10  1.9999999997260022e+02 -7.1091154536893601e-11 -3.8718123061232630e-12  1.9999999997275836e+02 9.1082612064377069e-11 7.3998554316400561e-11  1.9999999997261946e+02 7.8959358614312350e-12 -2.1234217388073638e-11  1.9999999997278252e+02 7.1434022047614572e-11 7.7802541754798333e-11  1.9999999997262370e+02 1.8926294515695849e-11 8.9791800364060711e-12  1.9999999997332174e+02 -8.0790911273333137e-11 -1.7108485570105985e-10  1.9999999997340481e+02 1.1529674397141554e-11 3.3075087113650084e-12  1.9999999997336332e+02 -1.0004828427471490e-10 -1.3680519624428707e-10  1.9999999997342579e+02 -9.5557149990624619e-11 4.1661431362842768e-12  1.9999999997728631e+02 -9.6431449164151963e-11 -1.4243494086131197e-10  1.9999999997816380e+02 -9.0487145729736671e-11 -1.0580487586249944e-10  1.9999999997654260e+02 -7.8480278116793730e-11 -7.5448621813054960e-11  1.9999999997565794e+02 -9.4500229491280511e-11 -1.3206470041077966e-10  1.9999999997585451e+02 -5.8513822238143821e-11 1.8469891174491143e-11  1.9999999997590322e+02 1.2873472224501501e-10 9.1120231159489006e-11  1.9999999997581091e+02 1.0282280650149877e-11 -6.2457529450342392e-11  1.9999999997587943e+02 1.0244230882219214e-10 1.2396644615486017e-10  1.9999999997580591e+02 -1.2051163695301887e-11 -1.7971853235646028e-11  1.9999999997655181e+02 -1.3551128136417062e-10 -2.1625983744365658e-10  1.9999999997653234e+02 -1.1980584703433548e-10 -1.1997896764563149e-10  1.9999999997406599e+02 -8.0379546145479480e-11 -1.2742921294223666e-10  1.9999999997493498e+02 -5.8854494163062313e-11 -9.5219893761443592e-11  1.9999999997421409e+02 -5.2577191056599137e-11 -1.7176229602539319e-11  1.9999999997432658e+02 1.1160957027308029e-10 6.6633503868612803e-11  1.9999999997424786e+02 -8.2651153230181023e-12 -3.9062050042272890e-11  1.9999999997435637e+02 8.7065500170215032e-11 1.0599158131194307e-10  1.9999999997427170e+02 -2.1639111803583521e-11 1.2481618717276251e-11  1.9999999997491713e+02 -9.3390511769958433e-11 -1.3942328004567394e-10  1.9999999997503264e+02 4.2086967914766831e-12 -1.1243206084447315e-11  1.9999999997492034e+02 -4.3350671050056890e-11 -1.0681118717303764e-10  1.9999999997501453e+02 -1.6225158635340101e-11 -2.0975130393148736e-11  1.9999999997336693e+02 -7.4849586040411106e-11 -7.2802898723689489e-11  1.9999999997332998e+02 -1.0253526446429222e-10 -9.4981835386987141e-11  1.9999999997257817e+02 -5.9172750163125366e-11 -4.1977789714808265e-11  1.9999999997272246e+02 9.9075871150311845e-11 9.0284377515480343e-11  1.9999999997567201e+02 -7.9065097291832123e-11 -1.0358880335754217e-10  1.9999999997655507e+02 -9.0260767149766689e-11 -9.6474263007480494e-11  1.9999999997494655e+02 -6.4789792180018735e-11 -7.4485741900704803e-11  1.9999999997122598e+02 1.0057759310805655e-10 6.1505598006221352e-10  1.9999999997112232e+02 -1.0027201344096088e-10 -2.6251588766562503e-11  1.9999999997096810e+02 -1.1714224285255547e-10 -2.0134391328116678e-10  1.9999999997180814e+02 -3.1763502088096597e-11 -1.4667769341891149e-10  1.9999999997107079e+02 -8.5984535856265986e-11 1.0182747091812056e-11  1.9999999997171787e+02 -2.1323360032897672e-10 -4.3085273678553852e-10  1.9999999997121191e+02 9.7746002605796944e-11 1.5852475020026586e-10  1.9999999997113247e+02 -1.8103438359681913e-11 3.7723636997724038e-11  1.9999999997179026e+02 -4.6731586704403429e-11 -2.1516301935189571e-10  1.9999999997282674e+02 1.1513986666171178e-10 6.6852487751026195e-10  1.9999999997176903e+02 -1.3615391020673946e-10 -1.6463023295725345e-10  1.9999999997183625e+02 -8.6470799131250766e-11 -3.1515117768877118e-12  1.9999999997186350e+02 -9.5807387746766650e-11 5.3717969716249637e-11  1.9999999997266025e+02 3.8818650178720415e-11 -8.5867726602203373e-11  1.9999999996970612e+02 8.2438299674716694e-11 6.0633050468791560e-10  1.9999999996947955e+02 -1.3061474275341863e-10 -1.5424891864912034e-10  1.9999999996954395e+02 -5.0866313819204193e-11 3.1158317401810023e-11  1.9999999997028527e+02 -1.0955472102994058e-10 -1.6033562453462621e-10  1.9999999997016977e+02 -2.1659982470611167e-10 -3.6985396068141312e-10  1.9999999996970101e+02 8.5779158819521041e-11 5.9044653067064404e-10  1.9999999996958638e+02 -1.0734791363258592e-10 -9.0331840633478206e-11  1.9999999996969643e+02 8.2581019682519571e-11 1.5554017654099722e-10  1.9999999996961151e+02 -1.7375180038903977e-11 -1.1300723152583610e-11  1.9999999996968950e+02 8.9230036646511332e-11 1.1884001621443418e-10  1.9999999996961103e+02 -8.3296280004875400e-11 5.3982378879436449e-12  1.9999999997026899e+02 -1.2712234071346347e-10 -1.6376233282406965e-10  1.9999999997023494e+02 -1.4312910375941341e-10 -2.0115464053991367e-10  1.9999999997032688e+02 -7.5511892928391744e-11 2.3736917231640564e-11  1.9999999997025000e+02 -6.8751274285221214e-11 6.6156150685699429e-11  1.9999999996818258e+02 5.9462322591324178e-11 6.2780699421368622e-10  1.9999999996796302e+02 -1.3332017138279382e-10 -1.7861888985844145e-10  1.9999999996804399e+02 -6.1494884570831319e-11 9.1365083459694406e-12  1.9999999996877636e+02 -1.4186637923522360e-10 -1.4841394375127644e-10  1.9999999996871790e+02 -1.8188370920544040e-10 -4.3012069614446988e-10  1.9999999996817309e+02 8.4149947816999754e-11 6.1327698276483265e-10  1.9999999996812289e+02 -3.1244300758552172e-11 -1.0201136680226132e-10  1.9999999996816837e+02 7.2938774671306244e-11 1.5867327806871182e-10  1.9999999996815532e+02 6.4313213064431317e-11 1.0932455287370800e-10  1.9999999996810334e+02 -8.3419662155475323e-11 3.9584623953716202e-11  1.9999999996877381e+02 -1.4454461912192643e-10 -1.5929148809629756e-10  1.9999999996878017e+02 -1.9711920503850499e-10 -1.8043086318726700e-10  1.9999999996883338e+02 -1.2091399996438083e-10 3.5464654884494107e-11  1.9999999996887172e+02 -2.5577549966171575e-11 5.5410391316646075e-11  1.9999999996663408e+02 3.8516035712865879e-11 2.9521139450440840e-10  1.9999999996643240e+02 -1.3188392334976451e-11 -3.4463736199547004e-11  1.9999999996637322e+02 -5.9176618348113200e-12 -1.7516445489902294e-11  1.9999999996734289e+02 -1.0841187722512860e-10 -1.2665044977619417e-10  1.9999999996661532e+02 3.0505159674041270e-11 5.5643016389424584e-11  1.9999999996661930e+02 3.5392596547485540e-11 4.7465605621293253e-11  1.9999999996639374e+02 -1.6094020797908558e-11 2.0861829366645857e-11  1.9999999996732026e+02 -1.0696487012247374e-10 -1.7728312290844592e-10  1.9999999996726524e+02 -1.9982999200371892e-10 -3.6293619114761852e-10  1.9999999996734479e+02 -1.9626552028254966e-10 -1.5250281401656496e-10  1.9999999996742247e+02 -9.4826474144498065e-11 1.7237486969407811e-11  1.9999999996733868e+02 -4.0477235573433040e-12 4.0686508951630993e-11  1.9999999996883668e+02 -9.1819547908652077e-11 -1.3892028030667758e-10  1.9999999996887237e+02 -2.1780291887504152e-10 -4.3984052958500135e-10  1.9999999996797084e+02 -1.2536732660585275e-10 -1.7765282986784215e-10  1.9999999996801265e+02 -5.8036870050993142e-11 -3.7102145682650870e-12  1.9999999996820208e+02 1.1763977130694801e-10 6.3599876634415387e-10  1.9999999996818036e+02 -6.7770331742853032e-11 -9.9318247339685792e-11  1.9999999996817607e+02 8.0272414622460942e-11 1.3741524845703406e-10  1.9999999996808370e+02 -4.7512854551656327e-11 -2.5617498964478934e-11  1.9999999996881857e+02 -1.4905210367792590e-10 -1.3584898768977058e-10  1.9999999996732575e+02 -9.1379038250690577e-11 -1.2641419619949826e-10  1.9999999996728917e+02 -1.7147581955619879e-10 -4.0810237898845631e-10  1.9999999996645951e+02 1.2377293407419645e-11 -1.2336559200022192e-11  1.9999999996647961e+02 -3.9291271688331908e-11 -1.2621560643577181e-10  1.9999999996660509e+02 6.0909914919151427e-11 3.0068511843463183e-10  1.9999999996646656e+02 -1.3811255062841913e-10 -1.9175317121135230e-11  1.9999999996657550e+02 4.1893289160175922e-11 5.2483135117285322e-11  1.9999999996639528e+02 -2.8683460536316071e-11 1.4342614797016246e-11  1.9999999996734908e+02 -1.2310836484863007e-10 -1.1103377828449325e-10  1.9999999996734749e+02 -1.2836562714006880e-10 -1.8154574008050882e-10  1.9999999996737873e+02 -6.4227475509686984e-11 2.6515052482663225e-11  1.9999999996738561e+02 -5.9387594451381573e-11 1.8082136016454702e-11  1.9999999997261367e+02 3.1610001496376825e-13 -7.5707549789395496e-11  1.9999999997270052e+02 -1.5493210220210515e-11 1.9945838206428716e-11  1.9999999997112681e+02 -5.0203585090776481e-11 -3.8949406885112806e-11  1.9999999997098570e+02 -1.1489845214968683e-10 -7.4672015969028703e-11  1.9999999997179881e+02 -1.8842056103082670e-11 -4.5698851353756575e-11  1.9999999997119551e+02 1.1331119318943912e-10 1.1156673175336671e-10  1.9999999997123942e+02 9.5719678113629466e-11 1.2033262040315408e-10  1.9999999997112545e+02 -4.5336484361562915e-11 1.4450816286648892e-11  1.9999999997177608e+02 -1.0066400325026717e-10 -1.2556003599942782e-10  1.9999999997178611e+02 -8.9198234737100270e-11 -8.1691626741108178e-11  1.9999999997184645e+02 -1.0355579919331352e-10 7.5210135885555109e-12  1.9999999996944175e+02 -1.3203253308830550e-10 -9.0613799320795893e-11  1.9999999997027459e+02 -1.0012663980397703e-10 -7.0960270460827173e-11  1.9999999996959690e+02 -5.9838654316271598e-11 1.4942689844235959e-11  1.99999999969