<?xml version="1.0"?>
<VTKFile type="UnstructuredGrid"  version="0.1"  >
<UnstructuredGrid>
<Piece  NumberOfPoints="3946" NumberOfCells="19511">
<Points>
<DataArray  type="Float64"  NumberOfComponents="3"  format="ascii">25 2.5 37.5  25 3.75 38.75  25 3.75 37.5  23.75 3.75 38.75  25 5 37.5  25 5 38.75  25 5 40  25 2.5 38.75  25 2.5 40  25 3.75 40  26.25 6.25 38.75  26.25 6.25 37.5  25 6.25 37.5  25 7.5 37.5  26.25 7.5 38.75  26.25 7.5 37.5  27.5 7.5 37.5  27.5 7.5 38.75  27.5 7.5 40  26.25 6.25 40  25 6.25 40  25 7.5 40  26.25 7.5 40  25 7.5 38.75  25 8.75 38.75  25 8.75 37.5  23.75 8.75 38.75  25 10 37.5  25 10 38.75  25 10 40  25 8.75 40  26.25 8.75 38.75  26.25 8.75 37.5  27.5 8.75 38.75  27.5 8.75 37.5  27.5 10 37.5  27.5 10 38.75  27.5 10 40  27.5 8.75 40  26.25 8.75 40  26.25 10 38.75  26.25 10 37.5  26.25 10 40  25 11.25 38.75  25 11.25 37.5  23.75 11.25 38.75  25 12.5 37.5  25 12.5 38.75  25 12.5 40  25 11.25 40  26.25 11.25 38.75  26.25 11.25 37.5  27.5 11.25 38.75  27.5 11.25 37.5  27.5 12.5 37.5  27.5 12.5 38.75  27.5 12.5 40  27.5 11.25 40  26.25 11.25 40  26.25 12.5 38.75  26.25 12.5 37.5  26.25 12.5 40  26.25 13.75 38.75  26.25 13.75 37.5  27.5 13.75 38.75  27.5 13.75 37.5  27.5 15 37.5  27.5 15 38.75  27.5 15 40  27.5 13.75 40  26.25 13.75 40  25 15 37.5  26.25 15 38.75  26.25 15 37.5  25 15 40  26.25 15 40  26.25 16.25 38.75  26.25 16.25 37.5  27.5 16.25 38.75  27.5 16.25 37.5  27.5 17.5 37.5  27.5 17.5 38.75  27.5 17.5 40  27.5 16.25 40  26.25 16.25 40  25 17.5 37.5  26.25 17.5 38.75  26.25 17.5 37.5  25 17.5 40  26.25 17.5 40  25 17.5 38.75  26.25 18.75 38.75  26.25 18.75 37.5  27.5 18.75 38.75  27.5 18.75 37.5  27.5 20 37.5  27.5 20 38.75  27.5 20 40  27.5 18.75 40  26.25 18.75 40  25 18.75 37.5  25 20 37.5  26.25 20 38.75  26.25 20 37.5  25 20 40  26.25 20 40  26.25 21.25 38.75  26.25 21.25 37.5  27.5 21.25 38.75  27.5 21.25 37.5  27.5 22.5 37.5  27.5 22.5 38.75  27.5 22.5 40  27.5 21.25 40  26.25 21.25 40  25 21.25 37.5  25 22.5 37.5  26.25 22.5 37.5  25 21.25 40  25 22.5 40  26.25 22.5 40  25 5 42.5  26.25 5 42.5  26.25 3.75 42.5  26.25 3.75 41.25  27.5 5 42.5  26.25 5 41.25  25 5 41.25  26.25 6.25 41.25  26.25 6.25 42.5  27.5 6.25 42.5  27.5 7.5 42.5  26.25 7.5 41.25  27.5 7.5 41.25  25 6.25 42.5  25 7.5 42.5  26.25 7.5 42.5  25 7.5 41.25  26.25 8.75 41.25  27.5 8.75 41.25  27.5 10 41.25  27.5 10 42.5  27.5 8.75 42.5  26.25 8.75 42.5  26.25 10 41.25  25 8.75 41.25  25 8.75 42.5  25 10 42.5  26.25 10 42.5  25 10 41.25  26.25 11.25 41.25  27.5 11.25 41.25  27.5 12.5 41.25  27.5 12.5 42.5  27.5 11.25 42.5  26.25 11.25 42.5  26.25 12.5 41.25  25 11.25 42.5  25 12.5 42.5  26.25 12.5 42.5  26.25 13.75 41.25  27.5 13.75 41.25  27.5 15 41.25  27.5 15 42.5  27.5 13.75 42.5  26.25 13.75 42.5  26.25 15 41.25  25 13.75 42.5  25 15 42.5  26.25 15 42.5  25 15 41.25  26.25 16.25 41.25  27.5 16.25 41.25  27.5 17.5 41.25  27.5 17.5 42.5  27.5 16.25 42.5  26.25 16.25 42.5  26.25 17.5 41.25  25 17.5 42.5  26.25 17.5 42.5  26.25 18.75 41.25  27.5 18.75 41.25  27.5 20 41.25  27.5 20 42.5  27.5 18.75 42.5  26.25 18.75 42.5  26.25 20 41.25  25 20 42.5  26.25 20 42.5  26.25 21.25 41.25  27.5 21.25 41.25  27.5 2.5 45  27.5 3.75 45  26.25 3.75 45  26.25 3.75 43.75  27.5 5 45  26.25 5 43.75  27.5 5 43.75  25 5 45  26.25 5 45  25 5 43.75  26.25 6.25 43.75  27.5 6.25 43.75  27.5 7.5 43.75  27.5 7.5 45  27.5 6.25 45  26.25 6.25 45  26.25 7.5 43.75  25 6.25 45  25 7.5 45  26.25 7.5 45  25 7.5 43.75  26.25 8.75 43.75  27.5 8.75 43.75  27.5 10 43.75  27.5 10 45  27.5 8.75 45  26.25 8.75 45  26.25 10 43.75  25 10 45  26.25 10 45  25 10 43.75  26.25 11.25 43.75  27.5 11.25 43.75  27.5 12.5 43.75  27.5 12.5 45  27.5 11.25 45  26.25 11.25 45  26.25 12.5 43.75  25 12.5 45  26.25 12.5 45  25 12.5 43.75  26.25 13.75 43.75  27.5 13.75 43.75  27.5 15 43.75  27.5 15 45  27.5 13.75 45  26.25 13.75 45  26.25 15 43.75  26.25 15 45  26.25 16.25 43.75  27.5 16.25 43.75  27.5 17.5 43.75  27.5 17.5 45  27.5 16.25 45  26.25 16.25 45  26.25 17.5 43.75  25 17.5 45  26.25 17.5 45  26.25 18.75 43.75  27.5 18.75 43.75  27.5 20 43.75  27.5 20 45  27.5 18.75 45  26.25 18.75 45  26.25 20 43.75  25 20 45  26.25 20 45  27.5 0 45  27.5 1.25 46.25  27.5 1.25 45  26.25 1.25 46.25  27.5 2.5 46.25  27.5 2.5 47.5  27.5 0 46.25  26.25 0 46.25  27.5 0 47.5  27.5 1.25 47.5  26.25 1.25 47.5  26.25 0 47.5  26.25 2.5 46.25  27.5 3.75 46.25  26.25 3.75 46.25  27.5 5 46.25  27.5 5 47.5  27.5 3.75 47.5  26.25 3.75 47.5  26.25 5 46.25  26.25 6.25 46.25  27.5 6.25 46.25  27.5 7.5 46.25  27.5 7.5 47.5  27.5 6.25 47.5  26.25 6.25 47.5  26.25 7.5 46.25  26.25 7.5 47.5  26.25 8.75 46.25  27.5 8.75 46.25  27.5 10 46.25  27.5 10 47.5  27.5 8.75 47.5  26.25 8.75 47.5  26.25 10 46.25  25 10 47.5  26.25 10 47.5  26.25 11.25 46.25  27.5 11.25 46.25  27.5 12.5 46.25  27.5 12.5 47.5  27.5 11.25 47.5  26.25 11.25 47.5  26.25 12.5 46.25  25 12.5 47.5  26.25 12.5 47.5  26.25 13.75 46.25  27.5 13.75 46.25  27.5 15 46.25  27.5 15 47.5  27.5 13.75 47.5  26.25 13.75 47.5  26.25 15 46.25  25 15 47.5  26.25 15 47.5  27.5 16.25 46.25  26.25 16.25 46.25  27.5 17.5 46.25  27.5 17.5 47.5  27.5 16.25 47.5  26.25 16.25 47.5  26.25 17.5 46.25  26.25 17.5 47.5  26.25 18.75 46.25  27.5 18.75 46.25  26.25 18.75 47.5  27.5 1.25 48.75  26.25 1.25 48.75  27.5 2.5 48.75  27.5 2.5 50  27.5 0 48.75  26.25 0 48.75  27.5 0 50  27.5 1.25 50  25 0 50  26.25 1.25 50  26.25 0 50  26.25 2.5 48.75  26.25 2.5 50  27.5 3.75 48.75  26.25 3.75 48.75  27.5 5 48.75  27.5 5 50  27.5 3.75 50  26.25 3.75 50  26.25 5 48.75  27.5 6.25 48.75  26.25 6.25 48.75  27.5 7.5 48.75  27.5 7.5 50  27.5 6.25 50  26.25 6.25 50  26.25 7.5 48.75  27.5 8.75 48.75  26.25 8.75 48.75  27.5 10 48.75  27.5 10 50  27.5 8.75 50  26.25 8.75 50  26.25 10 48.75  26.25 11.25 48.75  27.5 11.25 48.75  27.5 12.5 48.75  27.5 12.5 50  27.5 11.25 50  26.25 11.25 50  26.25 12.5 48.75  25 12.5 50  26.25 12.5 50  26.25 13.75 48.75  27.5 13.75 48.75  27.5 15 48.75  27.5 15 50  27.5 13.75 50  26.25 13.75 50  26.25 15 48.75  25 15 50  26.25 15 50  26.25 16.25 48.75  27.5 16.25 48.75  27.5 17.5 48.75  27.5 17.5 50  27.5 16.25 50  26.25 16.25 50  26.25 17.5 48.75  25 16.25 50  25 17.5 50  26.25 17.5 50  26.25 18.75 48.75  27.5 18.75 48.75  26.25 18.75 50  25 0 27.5  25 1.25 27.5  25 1.25 26.25  23.75 1.25 26.25  25 0 26.25  23.75 0 26.25  25 2.5 27.5  23.75 1.25 27.5  23.75 0 27.5  23.75 2.5 27.5  25 3.75 27.5  25 3.75 26.25  23.75 3.75 26.25  25 5 27.5  23.75 3.75 27.5  23.75 5 27.5  25 7.5 27.5  25 7.5 26.25  25 6.25 26.25  23.75 6.25 26.25  25 6.25 27.5  23.75 6.25 27.5  23.75 7.5 26.25  22.5 7.5 27.5  23.75 7.5 27.5  25 8.75 27.5  25 8.75 26.25  23.75 8.75 26.25  25 10 27.5  23.75 8.75 27.5  22.5 10 27.5  23.75 10 27.5  22.5 10 25  23.75 10 26.25  22.5 10 26.25  23.75 11.25 26.25  23.75 11.25 27.5  25 11.25 27.5  25 12.5 27.5  22.5 11.25 27.5  22.5 12.5 27.5  23.75 12.5 27.5  23.75 12.5 26.25  23.75 13.75 27.5  23.75 13.75 26.25  25 13.75 27.5  25 15 27.5  23.75 15 27.5  23.75 15 26.25  25 16.25 27.5  25 16.25 26.25  23.75 16.25 26.25  25 17.5 27.5  23.75 16.25 27.5  25 1.25 28.75  23.75 1.25 28.75  25 2.5 28.75  25 2.5 30  25 0 28.75  23.75 0 28.75  25 0 30  25 1.25 30  23.75 1.25 30  23.75 0 30  23.75 2.5 28.75  22.5 2.5 30  23.75 2.5 30  25 3.75 28.75  23.75 3.75 28.75  25 5 28.75  25 5 30  25 3.75 30  23.75 3.75 30  23.75 5 28.75  22.5 3.75 30  22.5 5 30  23.75 5 30  25 6.25 28.75  23.75 6.25 28.75  25 7.5 28.75  25 7.5 30  25 6.25 30  23.75 6.25 30  23.75 7.5 28.75  23.75 7.5 30  23.75 8.75 28.75  25 8.75 28.75  25 10 28.75  25 10 30  25 8.75 30  23.75 8.75 30  23.75 10 28.75  22.5 10 30  23.75 10 30  23.75 11.25 28.75  25 11.25 28.75  25 12.5 28.75  25 12.5 30  25 11.25 30  23.75 11.25 30  23.75 12.5 28.75  22.5 11.25 30  22.5 12.5 30  23.75 12.5 30  22.5 12.5 28.75  23.75 13.75 28.75  25 13.75 28.75  25 15 28.75  25 15 30  25 13.75 30  23.75 13.75 30  23.75 15 28.75  25 16.25 28.75  23.75 16.25 28.75  25 17.5 28.75  25 17.5 30  25 16.25 30  25 1.25 31.25  23.75 1.25 31.25  25 2.5 31.25  25 2.5 32.5  25 0 31.25  23.75 0 31.25  25 0 32.5  25 1.25 32.5  23.75 2.5 31.25  23.75 3.75 31.25  25 3.75 31.25  25 5 31.25  25 5 32.5  25 3.75 32.5  23.75 3.75 32.5  23.75 5 31.25  22.5 5 32.5  23.75 5 32.5  23.75 6.25 31.25  25 6.25 31.25  25 7.5 31.25  25 7.5 32.5  25 6.25 32.5  23.75 6.25 32.5  23.75 7.5 31.25  22.5 7.5 32.5  23.75 7.5 32.5  25 8.75 31.25  23.75 8.75 31.25  25 10 31.25  25 10 32.5  25 8.75 32.5  23.75 8.75 32.5  23.75 10 31.25  22.5 10 32.5  23.75 10 32.5  23.75 11.25 31.25  25 11.25 31.25  25 12.5 31.25  25 12.5 32.5  25 11.25 32.5  23.75 11.25 32.5  23.75 12.5 31.25  22.5 11.25 32.5  22.5 12.5 32.5  23.75 12.5 32.5  23.75 13.75 31.25  25 13.75 31.25  25 15 31.25  25 15 32.5  25 13.75 32.5  23.75 13.75 32.5  25 16.25 31.25  23.75 16.25 31.25  25 17.5 31.25  25 17.5 32.5  25 16.25 32.5  23.75 16.25 32.5  25 18.75 31.25  25 18.75 30  23.75 18.75 31.25  25 20 30  25 20 31.25  25 20 32.5  25 18.75 32.5  25 3.75 33.75  23.75 3.75 33.75  25 5 33.75  25 5 35  25 2.5 33.75  25 2.5 35  25 3.75 35  23.75 5 33.75  23.75 6.25 33.75  25 6.25 33.75  25 7.5 33.75  25 7.5 35  25 6.25 35  23.75 6.25 35  23.75 7.5 33.75  23.75 8.75 33.75  25 8.75 33.75  25 10 33.75  25 10 35  25 8.75 35  23.75 8.75 35  23.75 10 33.75  26.25 8.75 33.75  26.25 8.75 35  26.25 10 35  27.5 10 35  26.25 10 33.75  23.75 11.25 33.75  25 11.25 33.75  25 12.5 33.75  25 12.5 35  25 11.25 35  23.75 11.25 35  23.75 12.5 33.75  26.25 11.25 33.75  26.25 11.25 35  27.5 11.25 35  27.5 12.5 35  26.25 12.5 35  26.25 12.5 33.75  23.75 13.75 33.75  25 13.75 33.75  25 15 33.75  25 15 35  25 13.75 35  26.25 13.75 33.75  26.25 13.75 35  27.5 13.75 35  27.5 15 35  26.25 15 35  26.25 15 33.75  25 16.25 33.75  23.75 16.25 33.75  25 17.5 33.75  25 17.5 35  25 16.25 35  26.25 16.25 33.75  26.25 16.25 35  27.5 16.25 35  27.5 17.5 35  26.25 17.5 35  26.25 17.5 33.75  26.25 18.75 33.75  26.25 18.75 35  27.5 18.75 35  27.5 20 35  25 18.75 33.75  25 18.75 35  25 20 35  26.25 20 35  26.25 20 33.75  25 20 33.7
[...]
<PointData  Vectors="u"> 
<DataArray  type="Float64"  Name="u"  NumberOfComponents="3" format="ascii">1.9999999998249157e+02 1.5705331739243884e-10 -1.2569628752910012e-11  1.9999999998225374e+02 -8.3285125638688964e-11 -1.6347513508850877e-10  1.9999999998231183e+02 -7.9156808018963403e-12 5.1141055771083180e-11  1.9999999998311512e+02 -3.2674812838325302e-11 -1.3464433353934443e-10  1.9999999998243339e+02 8.1817053903165275e-11 -3.5966164736338308e-11  1.9999999998224800e+02 -1.3528025400057943e-11 -6.4024259195463916e-12  1.9999999998243752e+02 1.3315435727771072e-10 3.6347787883218446e-11  1.9999999998227193e+02 6.8768971113775529e-12 -6.3649697649650548e-11  1.9999999998244331e+02 6.8385068178130972e-11 4.3414541784587331e-11  1.9999999998228114e+02 2.7640361444405788e-11 -8.2254134908108987e-11  1.9999999998143437e+02 -5.7855273538448586e-11 -6.8758411359399776e-11  1.9999999998127049e+02 4.3929626619905119e-12 -3.1096625421336586e-11  1.9999999998222270e+02 -3.0304243337341329e-11 3.2631538531332168e-11  1.9999999998242649e+02 1.4635639138676018e-10 -6.4260671017459753e-11  1.9999999998137503e+02 -2.1150779823842004e-10 -9.3569615057609779e-11  1.9999999998148843e+02 -1.7579169064792241e-11 -1.5921440116076200e-11  1.9999999998080065e+02 1.6056149266332220e-10 -3.9251374054759181e-11  1.9999999998065016e+02 1.2091503577860378e-10 -6.9391613282407655e-11  1.9999999998079682e+02 1.2386000444278040e-10 8.6519998839988071e-11  1.9999999998136590e+02 -2.9750270828413346e-11 -2.2102143544723354e-10  1.9999999998233491e+02 7.6646450765194400e-12 5.3374854438792144e-11  1.9999999998240204e+02 1.2087860327639416e-10 9.9617101246284783e-11  1.9999999998144335e+02 -1.0982213421203971e-11 1.1112198096655358e-11  1.9999999998228765e+02 4.4741871638908340e-11 9.5741386235534888e-13  1.9999999998211223e+02 -1.2708307568499324e-10 -8.6692749435615855e-11  1.9999999998225212e+02 -2.3886526321222594e-11 2.2362200487461685e-11  1.9999999998310150e+02 -6.3287783456553668e-11 -1.0360821538686490e-10  1.9999999998245084e+02 1.7874985714619227e-10 -4.5309440064730505e-11  1.9999999998231709e+02 4.3353481124013351e-11 -4.6667867058786440e-12  1.9999999998243837e+02 1.1604713676168798e-10 7.9849340667911530e-11  1.9999999998228583e+02 -2.8232356034928880e-11 2.3352212692600525e-13  1.9999999998143471e+02 -1.1765347891184043e-11 -1.0183233833261407e-10  1.9999999998135351e+02 -2.1381960089509490e-10 -1.8780603805310047e-10  1.9999999998063842e+02 -5.4763665711583966e-11 -1.6070257364274997e-10  1.9999999998063623e+02 1.5053080540831105e-11 4.6848246213663473e-11  1.9999999998082424e+02 1.3780162466193036e-10 -7.8399134467469142e-12  1.9999999998060196e+02 5.9024606371551284e-11 -5.5186771598207438e-11  1.9999999998080708e+02 1.4013722445178322e-10 7.9134073412283679e-11  1.9999999998063115e+02 1.7687051391195105e-11 3.6923206970602857e-11  1.9999999998138762e+02 -9.5700866223373558e-11 -1.6661800500245121e-10  1.9999999998142957e+02 -7.8988085547294827e-11 -1.1608135635854919e-10  1.9999999998148110e+02 2.5411437106817220e-11 3.4528531886225328e-11  1.9999999998146086e+02 3.4695172491940193e-11 -2.3932209463623460e-11  1.9999999998220630e+02 -8.2902459669500288e-11 -1.1092586584146943e-10  1.9999999998230501e+02 3.7055923751758465e-12 1.6731190194411011e-11  1.9999999998308928e+02 -6.5461588008956542e-11 -1.6522866208461442e-10  1.9999999998248788e+02 1.3514276676051988e-10 -6.2106790243539590e-11  1.9999999998234796e+02 1.8057539265284016e-11 -4.4113231743476669e-11  1.9999999998247984e+02 1.1131996045333394e-10 7.2756874807193675e-11  1.9999999998235035e+02 5.8706895688702811e-12 -2.2381836914947207e-11  1.9999999998147385e+02 -4.2882584404778025e-11 -1.5511731268690784e-10  1.9999999998129007e+02 -1.6852150974406190e-10 5.2840678268123602e-11  1.9999999998049083e+02 -3.3922711413980831e-11 -1.1183267249283694e-10  1.9999999998058234e+02 2.4433429539585315e-11 6.3202632140012707e-11  1.9999999998077971e+02 1.2457238424009778e-10 -1.1853968334038118e-11  1.9999999998059960e+02 2.2605043971610071e-11 1.3586077911382711e-12  1.9999999998078368e+02 1.4995057031234889e-10 2.4296066098221374e-11  1.9999999998059405e+02 4.8547973607803276e-11 -2.5031081863719497e-11  1.9999999998142380e+02 -3.2486524750258605e-11 -2.2991383664086989e-10  1.9999999998143988e+02 -1.4854395601393065e-10 -1.2385537114361018e-10  1.9999999998146544e+02 -7.2160403946849379e-12 4.6362125358033710e-11  1.9999999998151640e+02 -5.6017504847947009e-13 -1.1845852959521831e-11  1.9999999998146944e+02 -6.5796333857413448e-11 -1.1435191846169239e-10  1.9999999998131022e+02 -2.1150222681892170e-10 -8.0415221993283772e-11  1.9999999998058141e+02 -9.8833739609978690e-11 -4.5530092690972993e-11  1.9999999998061296e+02 -2.9913439052397289e-11 7.9996648516553444e-11  1.9999999998083021e+02 1.0744607053190590e-10 -3.6165805948025179e-12  1.9999999998065363e+02 -9.4599303007959099e-12 4.9553406657916603e-11  1.9999999998083081e+02 4.2256798505664982e-13 4.8601900167866531e-11  1.9999999998063458e+02 8.1011995566856542e-11 -2.7923436499643988e-11  1.9999999998149622e+02 -6.6876566666247365e-11 -1.9821755360722139e-10  1.9999999998246602e+02 1.2469311979311523e-10 -4.4434735848978252e-11  1.9999999998139981e+02 -2.0079991225331519e-10 -1.0231742916193099e-10  1.9999999998144483e+02 -7.9653095173961396e-11 5.1820682065790057e-11  1.9999999998246878e+02 1.0499689225012930e-10 7.4144328053719260e-11  1.9999999998150781e+02 -1.6178783372377962e-11 -1.4385546541107606e-11  1.9999999998146177e+02 -8.4535683602862474e-11 -9.9213323210632377e-11  1.9999999998130173e+02 -1.7321996507501437e-10 -1.2237921831422402e-10  1.9999999998060201e+02 -9.3989316600673173e-11 -1.4569135691599864e-10  1.9999999998063973e+02 -2.3335252650227366e-11 1.0436406424968718e-10  1.9999999998080898e+02 1.2058910287150349e-10 4.0611036471228831e-12  1.9999999998064257e+02 -2.1026111953112761e-12 -3.5700120489246521e-11  1.9999999998083672e+02 1.1118752354806863e-10 6.6991304327806154e-11  1.9999999998063373e+02 -5.2516730014045303e-11 -1.9521366116178420e-11  1.9999999998138014e+02 -8.7067189937406438e-11 -2.0066701509650471e-10  1.9999999998251218e+02 1.4120532484983317e-10 -4.5742892290659232e-11  1.9999999998142368e+02 -1.1870427354430831e-10 -1.3683787753968225e-10  1.9999999998147848e+02 -6.6972741741637460e-11 7.5321250904059401e-11  1.9999999998245440e+02 1.0710523059925187e-10 1.1153583430712333e-10  1.9999999998146836e+02 -4.3741233551991171e-11 -6.9777408710347904e-12  1.9999999998237865e+02 7.6591876157151558e-12 -5.5645290690583942e-12  1.9999999998146311e+02 -1.0412261911806912e-10 -1.3166131739592570e-10  1.9999999998131858e+02 -2.3083912766931143e-10 -7.5720653288355931e-11  1.9999999998064041e+02 -1.0551734496853925e-10 -1.2433672555649279e-10  1.9999999998066480e+02 -5.3251942425353112e-11 1.1544048869657823e-10  1.9999999998081680e+02 8.0587326717003552e-11 1.8465104445035254e-11  1.9999999998061142e+02 -2.5053077390645537e-11 -3.5544900094670540e-12  1.9999999998082583e+02 2.6949886451965234e-11 8.2353379645336029e-11  1.9999999998070774e+02 4.2873251831973445e-11 -4.3075604538295380e-11  1.9999999998143235e+02 -9.1876405654749989e-11 -1.9294418069143778e-10  1.9999999998231687e+02 -6.9644846366602231e-11 4.6680826587119550e-11  1.9999999998249268e+02 1.5709639637734066e-10 -5.1179280998938343e-11  1.9999999998143491e+02 -1.3386315470222856e-10 -9.7170878953936001e-11  1.9999999998144048e+02 -4.4579292653585880e-11 4.7769639993437193e-11  1.9999999998245198e+02 1.1210359322227167e-10 1.1093192230464785e-10  1.9999999998152057e+02 -5.3576232086379008e-12 -2.7333782361058961e-11  1.9999999998145856e+02 -6.6491289772489300e-11 -1.3903486541922221e-10  1.9999999998131278e+02 -1.8600770565721436e-10 -6.8346733654713761e-11  1.9999999998056782e+02 -7.4546481515442252e-11 -1.9030768930189408e-10  1.9999999998061568e+02 5.4784875877362237e-12 1.5342336260162791e-10  1.9999999998076851e+02 6.9911895668688965e-11 1.1350558878563969e-11  1.9999999998063208e+02 -1.7404690076028269e-11 -3.2012906278108816e-11  1.9999999998080085e+02 9.1329990827983123e-11 7.7125580795375638e-11  1.9999999998062080e+02 -2.0057624771159457e-12 3.6067418756812772e-11  1.9999999998138773e+02 -9.2325673352921787e-11 -2.0706174572860558e-10  1.9999999998229077e+02 -4.7272884691274908e-11 2.0896026528977514e-11  1.9999999998247583e+02 1.3354032735429479e-10 -5.9068138226279981e-11  1.9999999998145992e+02 -4.9506109971827872e-11 3.9519927641843668e-11  1.9999999998234642e+02 -1.1247869944515196e-11 8.0351640800496854e-12  1.9999999998246381e+02 9.0804925846201752e-11 1.0645367218060069e-10  1.9999999998147968e+02 6.1664271869528654e-11 -2.4520967419833587e-11  1.9999999998244687e+02 1.1784169455399104e-10 7.2802416234613439e-11  1.9999999998151637e+02 -6.4063793795917960e-12 -3.3721722536405818e-11  1.9999999998148408e+02 1.6274428555883272e-11 -2.3652508300228487e-10  1.9999999998146643e+02 -4.8316366495340589e-12 -5.9181654389446618e-11  1.9999999998078445e+02 8.1800788098929800e-11 8.7871887430950320e-11  1.9999999998141016e+02 -1.8400278677004386e-10 -5.2109112626770634e-11  1.9999999998234290e+02 7.7053012245076143e-11 -4.5973908617580378e-11  1.9999999998145333e+02 -6.7403270807836472e-11 -1.2786024674982339e-10  1.9999999998142627e+02 -1.9156573486912220e-11 -1.8509463989752056e-10  1.9999999998059874e+02 8.2299709878763178e-11 6.5436695625834403e-11  1.9999999998077590e+02 1.3859391545163441e-10 1.0045401889590103e-10  1.9999999998140609e+02 -1.5266826690549933e-10 -7.5550458186871933e-11  1.9999999998058581e+02 8.8202763322232268e-11 1.2553238786654618e-10  1.9999999998234679e+02 2.0566417064550467e-11 -3.3233905620274381e-11  1.9999999998244633e+02 1.3222477413459633e-10 7.1090824131917880e-11  1.9999999998152759e+02 9.7406882574664020e-12 -3.0086702716153283e-11  1.9999999998232715e+02 2.6655007968712021e-11 -3.6511115129686665e-11  1.9999999998141743e+02 -7.0346075987332845e-11 -8.8922881153866959e-11  1.9999999998060065e+02 -7.2779207811145000e-11 -1.0788612698719727e-10  1.9999999998062026e+02 4.6681875070167137e-11 1.6784370416809675e-11  1.9999999998080770e+02 9.6171999799334740e-11 9.6296398061003169e-11  1.9999999998063751e+02 -3.7305660485560067e-11 6.2252090312163988e-11  1.9999999998144673e+02 -1.0487896307899603e-10 -1.9320594755994817e-10  1.9999999998143988e+02 -1.6618470697265971e-10 -1.1477889607968712e-10  1.9999999998213960e+02 -9.8409920799655782e-11 -1.5003355570473729e-10  1.9999999998233781e+02 1.2933961192304600e-11 2.4333223001468860e-12  1.9999999998242765e+02 1.1795810705645487e-10 8.0635374046933127e-11  1.9999999998152023e+02 2.8947624929534244e-11 1.5450361478556274e-11  1.9999999998230385e+02 2.4995464454175561e-11 -2.1757460728714417e-11  1.9999999998143426e+02 -5.5701256330928487e-11 -1.0225602792387521e-10  1.9999999998058368e+02 -1.1562980421243659e-10 -1.5474202319522262e-10  1.9999999998059852e+02 5.2896858828019156e-11 -6.6032114914061418e-11  1.9999999998078911e+02 1.4299757521200533e-10 8.7398683244471265e-11  1.9999999998060258e+02 -6.0230915067530883e-11 -1.3292560682766923e-11  1.9999999998139239e+02 -1.0580786344793410e-10 -2.1256394188668510e-10  1.9999999998141183e+02 -1.4273796638998256e-10 -1.8003886944316038e-10  1.9999999998234139e+02 9.2265834454306612e-12 -1.3680282197619212e-11  1.9999999998243672e+02 1.0486901173679615e-10 7.9183156227852332e-11  1.9999999998145711e+02 3.0904179662940949e-11 -1.9037514004737065e-11  1.9999999998146919e+02 -7.3234190696804777e-11 -1.2769850182305465e-10  1.9999999998054938e+02 -3.2349624159998935e-11 -1.7563866881552487e-10  1.9999999998063848e+02 -3.4476176218929269e-11 -4.8886534084264968e-11  1.9999999998079997e+02 6.0484105969476220e-11 6.5390072293591883e-11  1.9999999998059502e+02 4.9393626009457572e-11 -5.5537195693116096e-11  1.9999999998143457e+02 -8.3092948031619499e-11 -1.6414454242869376e-10  1.9999999998142411e+02 -1.3508437667006844e-10 -1.5518728512792758e-10  1.9999999998234620e+02 -4.1424444821833031e-12 -2.2833837612170272e-12  1.9999999998244772e+02 1.0566863759306316e-10 1.0285680112015721e-10  1.9999999998151424e+02 2.2007764024863803e-12 -1.8427018570615914e-11  1.9999999998236575e+02 2.0701834305157622e-11 -3.0434203159025468e-11  1.9999999998142997e+02 -6.4512602390988173e-11 -9.0428113561778777e-11  1.9999999998057206e+02 -4.9021418194929151e-11 -9.7503584245855320e-11  1.9999999998067028e+02 -3.8303393707764498e-12 6.0817522505401765e-11  1.9999999998082771e+02 9.0448009166165130e-11 7.8231381224194716e-11  1.9999999998063129e+02 1.0775171243567719e-10 1.8195826889240074e-11  1.9999999998142485e+02 -6.2603479740527828e-11 -2.1992817736409558e-10  1.9999999998139819e+02 -1.9589223582903258e-10 -1.2004622488989750e-10  1.9999999998247108e+02 1.2052246763920423e-10 9.0885718062794569e-11  1.9999999998149070e+02 -2.1377458236066510e-11 -1.4216752146271653e-12  1.9999999998142468e+02 -1.0109152327701334e-10 -6.8962695513051148e-11  1.9999999998066770e+02 -9.1443544909660524e-11 -9.3221655253107142e-11  1.9999999998067588e+02 -4.9397704243249059e-11 -6.9619155982969830e-11  1.9999999998084340e+02 3.8216333000729717e-11 9.9673096149096727e-11  1.9999999998071303e+02 -6.5690086388381143e-11 -2.5774676739889021e-11  1.9999999998141953e+02 -1.1075939033087562e-10 -2.2274100258610900e-10  1.9999999998137960e+02 -1.6110861967210892e-10 -1.2607800548864573e-10  1.9999999998245718e+02 9.7399378276899509e-11 8.4471207743095208e-11  1.9999999998142567e+02 1.6704038798210411e-11 3.5534517857605222e-11  1.9999999998141266e+02 -6.8987426688110096e-11 -7.9296413936985508e-11  1.9999999998057194e+02 -9.8145228702950353e-11 -1.5647159514309702e-10  1.9999999998081904e+02 3.5690990690256421e-11 4.7573359111620227e-11  1.9999999998058203e+02 4.4301820262421809e-12 3.5547411918833272e-11  1.9999999998138759e+02 -6.3368367029016712e-11 -1.9789949141032163e-10  1.9999999998146012e+02 -4.2576175463576474e-11 -1.1671204888104832e-10  1.9999999998077627e+02 1.3975634914230001e-10 3.7585476694321650e-11  1.9999999998141266e+02 -1.8289054974363201e-10 -1.0717374760710943e-10  1.9999999998063620e+02 9.4061525043171504e-11 -1.4760668511850306e-11  1.9999999998245170e+02 1.2832525074172179e-10 8.9212550883170290e-11  1.9999999998150568e+02 3.7436613181570201e-11 -2.5906833113674531e-11  1.9999999998237817e+02 5.5113364149488643e-12 -4.6066584960496744e-11  1.9999999998145518e+02 -4.2376733422419187e-11 -9.6356521960789493e-11  1.9999999998059138e+02 -7.7617377443709921e-11 -1.1455246491696522e-10  1.9999999998065132e+02 6.1527153805471682e-11 -1.2412840944811286e-10  1.9999999998081367e+02 1.2804885858970739e-10 6.2383952343198182e-11  1.9999999998063120e+02 -1.5230648095638410e-11 -3.9684202970075535e-11  1.9999999998140862e+02 -9.9313747960006240e-11 -1.9025883086575254e-10  1.9999999998142243e+02 -1.3627011657747627e-10 -1.2925949166459932e-10  1.9999999998234316e+02 4.9549231135151723e-11 3.0580047340744459e-11  1.9999999998241543e+02 1.4021802621572156e-10 7.4192791870313409e-11  1.9999999998149198e+02 4.4929844815269161e-11 -4.8219711411478983e-11  1.9999999998235199e+02 6.2615824195221312e-11 -1.1130027910929203e-11  1.9999999998144068e+02 -7.8248314228489629e-11 -1.0071299658966946e-10  1.9999999998058166e+02 -1.0075792642445392e-10 -1.9880927244459149e-10  1.9999999998060514e+02 2.0964434572941893e-11 -5.2677906334265675e-11  1.9999999998080060e+02 1.2463636579663837e-10 7.1721414686298650e-11  1.9999999998062034e+02 6.1909589833332934e-11 2.8236843111082360e-11  1.9999999998139924e+02 -8.5076968681769434e-11 -1.6999404195150565e-10  1.9999999998143102e+02 -1.2035351889980418e-10 -1.4135713687686125e-10  1.9999999998243217e+02 8.8926045426326582e-11 5.6856039196048435e-11  1.9999999998151515e+02 -6.8281484380818223e-12 -3.9897376436802749e-11  1.9999999998236729e+02 7.8287789048124720e-12 -2.7891589235832514e-11  1.9999999998145717e+02 -1.0351379183324066e-10 -1.0242275450779480e-10  1.9999999998053030e+02 -1.2749035623306867e-10 -8.5489527656510206e-11  1.9999999998062992e+02 1.7144254568713640e-11 -4.2933738611024580e-11  1.9999999998079866e+02 9.6148664251920663e-11 1.0358529831293848e-10  1.9999999998063475e+02 -5.7114953578418089e-11 1.4945132515125122e-12  1.9999999998146811e+02 -6.5145497927759036e-11 -1.9548455356785152e-10  1.9999999998140390e+02 -1.1959088242784385e-10 -1.3903419733280084e-10  1.9999999998246102e+02 1.1977676181820171e-10 9.9719262361138454e-11  1.9999999998151642e+02 -2.8021572004146217e-12 -4.8229710960553916e-12  1.9999999998236186e+02 4.2872330485112566e-11 -9.0883339936419838e-11  1.9999999998141985e+02 -5.2759311858179688e-11 -1.4868078451219609e-10  1.9999999998055796e+02 -7.9812401273237315e-11 -1.3850485886161158e-10  1.9999999998061230e+02 5.6979206990486862e-11 -7.4053390451846852e-11  1.9999999998082845e+02 1.5639735012756126e-10 1.3346975999019276e-10  1.9999999998061048e+02 -4.3147024784429895e-12 2.3611722915299005e-11  1.9999999998143429e+02 -1.0370821687632010e-10 -1.7409153882255464e-10  1.9999999998136727e+02 -1.8950044780783795e-10 -1.3276948138994987e-10  1.9999999998151563e+02 2.3835780091265482e-11 -4.6861291756096209e-11  1.9999999998144062e+02 -5.3683356545656258e-11 -1.0306880706043936e-10  1.9999999998059380e+02 -3.7361257790609920e-11 -1.0520269812561596e-10  1.9999999998067673e+02 1.9449602266894482e-11 -3.0489843708173901e-11  1.9999999998085110e+02 1.1011136492628483e-10 9.9782988959206829e-11  1.9999999998069580e+02 4.1679431995232632e-12 -2.6197894674913331e-11  1.9999999998142982e+02 -7.2987020057752261e-11 -2.4271907771557303e-10  1.9999999998145213e+02 -1.6673079551555174e-10 -1.1867375117000675e-10  1.9999999998245661e+02 1.0586901408642373e-10 9.2715849695659663e-11  1.9999999998149283e+02 4.1003255240866470e-11 -4.5386101360398354e-12  1.9999999998143792e+02 -7.5497193759903984e-11 -7.7110896508758178e-11  1.9999999998064794e+02 -1.4001088417658304e-10 -8.1740283032116369e-11  1.9999999998061620e+02 -5.9579106311719890e-11 -6.0937823786975643e-11  1.9999999998081486e+02 1.4949115752622194e-11 1.1520128054135999e-10  1.9999999998066872e+02 -4.7968010951155423e-11 -4.1184123269066876e-11  1.9999999998144190e+02 -1.0185698699696241e-10 -1.3014688677990735e-10  1.9999999998139990e+02 -1.2901627917300086e-10 -1.1436514204407555e-10  1.9999999998244718e+02 1.2288687796807522e-10 1.1766432950287155e-10  1.9999999998145665e+02 -2.8576889700500403e-11 -5.2095973189764716e-12  1.9999999998081893e+02 6.2408432365939801e-10 2.4991521736798434e-11  1.9999999998047090e+02 -1.4705121499886744e-10 -8.0581324964806583e-11  1.9999999998058530e+02 -7.8509550820108988e-11 4.5914760678539702e-11  1.9999999998142138e+02 -8.1965130522803372e-11 -7.7626445751237565e-11  1.9999999998068884e+02 -7.6276545174000721e-11 -1.6115124490490368e-11  1.9999999998080804e+02 1.9727609293782351e-11 8.4063721956811060e-11  1.9999999998062819e+02 5.9851531252805166e-11 1.3442859291905357e-12  1.9999999998142766e+02 -3.5523184253032259e-10 5.8261896541055769e-12  1.9999999998079912e+02 5.0513590688181938e-10 6.7554927377645169e-11  1.9999999998064280e+02 -7.5285904752585058e-11 4.9400530431539519e-11  1.9999999998142846e+02 -2.0325421137314514e-11 -1.4578998351475185e-10  1.9999999998148573e+02 -6.8602566890850059e-12 -6.7041958669565148e-11  1.9999999998129186e+02 1.1689661251120762e-11 -1.8726135499851867e-10  1.9999999998052499e+02 -5.9088136462798579e-11 -1.0563310019417515e-10  1.9999999998144102e+02 -6.1551809747604869e-11 -6.8720622206850025e-11  1.9999999998056833e+02 3.5178236912274380e-11 -2.8963195988695714e-11  1.9999999998079022e+02 8.9373278933783749e-11 5.4116114406435965e-11  1.9999999998058448e+02 2.7485708012204039e-11 2.6249147875241414e-11  1.9999999998143292e+02 -5.8460880237790931e-11 -1.2666149589210498e-10  1.9999999998140373e+02 -1.5567354708752254e-10 -1.1639363999116716e-10  1.9999999998141917e+02 -8.7798849423942198e-11 -1.1721093624445133e-10  1.9999999998056236e+02 -8.5549176964