<?xml version="1.0"?>
<VTKFile type="UnstructuredGrid"  version="0.1"  >
<UnstructuredGrid>
<Piece  NumberOfPoints="3975" NumberOfCells="19749">
<Points>
<DataArray  type="Float64"  NumberOfComponents="3"  format="ascii">25 0 25  25 1.25 25  23.75 1.25 25  23.75 1.25 23.75  23.75 0 25  23.75 0 23.75  25 2.5 25  22.5 2.5 25  23.75 2.5 25  22.5 2.5 22.5  23.75 2.5 23.75  22.5 2.5 23.75  23.75 3.75 23.75  23.75 3.75 25  25 3.75 25  25 5 25  22.5 3.75 25  22.5 5 25  23.75 5 25  22.5 5 22.5  23.75 5 23.75  22.5 5 23.75  23.75 6.25 23.75  23.75 6.25 25  25 6.25 25  25 7.5 25  22.5 6.25 23.75  22.5 6.25 25  22.5 7.5 25  23.75 7.5 25  25 1.25 26.25  23.75 1.25 26.25  25 2.5 26.25  25 2.5 27.5  25 0 26.25  23.75 0 26.25  23.75 2.5 26.25  23.75 2.5 27.5  23.75 3.75 26.25  25 3.75 26.25  25 5 26.25  25 5 27.5  23.75 5 26.25  23.75 5 27.5  23.75 6.25 26.25  25 6.25 26.25  25 7.5 26.25  23.75 7.5 26.25  23.75 8.75 26.25  23.75 8.75 25  25 8.75 26.25  25 8.75 25  25 10 25  25 10 26.25  25 10 27.5  22.5 8.75 25  22.5 10 25  23.75 10 26.25  23.75 10 25  23.75 11.25 26.25  23.75 11.25 25  25 11.25 26.25  25 11.25 25  25 12.5 25  25 12.5 26.25  25 12.5 27.5  25 11.25 27.5  22.5 12.5 25  23.75 12.5 26.25  23.75 12.5 25  23.75 13.75 26.25  23.75 13.75 25  25 13.75 26.25  25 13.75 25  25 15 25  25 15 26.25  25 15 27.5  25 13.75 27.5  23.75 15 26.25  23.75 15 25  25 16.25 26.25  25 16.25 25  23.75 16.25 26.25  23.75 16.25 25  25 17.5 25  20 0 0  21.25 1.25 1.25  21.25 1.25 0  21.25 0 0  22.5 0 0  22.5 1.25 1.25  22.5 1.25 0  22.5 2.5 0  22.5 2.5 1.25  22.5 2.5 2.5  21.25 0 1.25  22.5 0 1.25  22.5 0 2.5  22.5 1.25 2.5  21.25 1.25 2.5  21.25 0 2.5  20 2.5 0  21.25 2.5 1.25  21.25 2.5 0  21.25 2.5 2.5  21.25 3.75 1.25  21.25 3.75 0  22.5 3.75 1.25  22.5 3.75 0  22.5 5 0  22.5 5 1.25  22.5 5 2.5  22.5 3.75 2.5  21.25 3.75 2.5  20 3.75 0  20 5 0  21.25 5 1.25  21.25 5 0  21.25 6.25 1.25  21.25 6.25 0  22.5 6.25 1.25  22.5 6.25 0  22.5 7.5 0  22.5 7.5 1.25  22.5 7.5 2.5  22.5 6.25 2.5  22.5 8.75 1.25  22.5 8.75 0  21.25 8.75 1.25  22.5 10 0  22.5 10 1.25  22.5 10 2.5  22.5 8.75 2.5  21.25 8.75 2.5  22.5 11.25 1.25  22.5 11.25 0  21.25 11.25 1.25  22.5 12.5 0  22.5 12.5 1.25  22.5 12.5 2.5  22.5 11.25 2.5  22.5 1.25 3.75  21.25 1.25 3.75  22.5 2.5 3.75  22.5 2.5 5  22.5 0 3.75  21.25 0 3.75  22.5 0 5  22.5 1.25 5  21.25 1.25 5  21.25 2.5 3.75  22.5 3.75 3.75  21.25 3.75 3.75  22.5 5 3.75  22.5 5 5  22.5 3.75 5  21.25 3.75 5  21.25 5 3.75  20 5 5  21.25 5 5  22.5 6.25 3.75  21.25 6.25 3.75  22.5 7.5 3.75  22.5 7.5 5  22.5 6.25 5  21.25 6.25 5  21.25 7.5 3.75  22.5 8.75 3.75  21.25 8.75 3.75  22.5 10 3.75  22.5 10 5  22.5 8.75 5  21.25 8.75 5  21.25 10 3.75  21.25 10 5  22.5 11.25 3.75  21.25 11.25 3.75  22.5 12.5 3.75  22.5 12.5 5  22.5 11.25 5  21.25 11.25 5  21.25 12.5 3.75  22.5 13.75 3.75  22.5 13.75 2.5  21.25 13.75 3.75  22.5 15 2.5  22.5 15 3.75  22.5 15 5  22.5 13.75 5  21.25 13.75 5  22.5 1.25 6.25  21.25 1.25 6.25  22.5 2.5 6.25  22.5 2.5 7.5  22.5 0 6.25  22.5 0 7.5  22.5 1.25 7.5  21.25 1.25 7.5  21.25 2.5 6.25  20 2.5 7.5  21.25 2.5 7.5  22.5 3.75 6.25  21.25 3.75 6.25  22.5 5 6.25  22.5 5 7.5  22.5 3.75 7.5  21.25 3.75 7.5  21.25 5 6.25  20 5 7.5  21.25 5 7.5  21.25 6.25 6.25  22.5 6.25 6.25  22.5 7.5 6.25  22.5 7.5 7.5  22.5 6.25 7.5  21.25 6.25 7.5  21.25 7.5 6.25  20 6.25 7.5  20 7.5 7.5  21.25 7.5 7.5  22.5 8.75 6.25  21.25 8.75 6.25  22.5 10 6.25  22.5 10 7.5  22.5 8.75 7.5  21.25 8.75 7.5  21.25 10 6.25  22.5 11.25 6.25  21.25 11.25 6.25  22.5 12.5 6.25  22.5 12.5 7.5  22.5 11.25 7.5  21.25 11.25 7.5  21.25 12.5 6.25  21.25 12.5 7.5  22.5 13.75 6.25  21.25 13.75 6.25  22.5 15 6.25  22.5 15 7.5  22.5 13.75 7.5  21.25 13.75 7.5  22.5 1.25 8.75  21.25 1.25 8.75  22.5 2.5 8.75  22.5 2.5 10  22.5 0 8.75  22.5 0 10  22.5 1.25 10  21.25 1.25 10  21.25 2.5 8.75  21.25 2.5 10  21.25 3.75 8.75  22.5 3.75 8.75  22.5 5 8.75  22.5 5 10  22.5 3.75 10  21.25 3.75 10  21.25 5 8.75  20 5 10  21.25 5 10  20 5 8.75  21.25 6.25 8.75  22.5 6.25 8.75  22.5 7.5 8.75  22.5 7.5 10  22.5 6.25 10  21.25 6.25 10  21.25 7.5 8.75  20 7.5 10  21.25 7.5 10  21.25 8.75 8.75  22.5 8.75 8.75  22.5 10 8.75  22.5 10 10  22.5 8.75 10  21.25 8.75 10  21.25 10 8.75  21.25 10 10  22.5 11.25 8.75  21.25 11.25 8.75  22.5 12.5 8.75  22.5 12.5 10  22.5 11.25 10  21.25 11.25 10  21.25 12.5 8.75  21.25 12.5 10  22.5 13.75 8.75  21.25 13.75 8.75  22.5 15 8.75  22.5 15 10  22.5 13.75 10  21.25 13.75 10  21.25 15 8.75  21.25 15 10  21.25 16.25 8.75  21.25 16.25 10  22.5 1.25 11.25  21.25 1.25 11.25  22.5 2.5 11.25  22.5 2.5 12.5  22.5 0 11.25  21.25 0 11.25  22.5 0 12.5  22.5 1.25 12.5  21.25 1.25 12.5  21.25 2.5 11.25  20 2.5 12.5  21.25 2.5 12.5  22.5 3.75 11.25  21.25 3.75 11.25  22.5 5 11.25  22.5 5 12.5  22.5 3.75 12.5  21.25 3.75 12.5  21.25 5 11.25  20 5 12.5  21.25 5 12.5  21.25 6.25 11.25  22.5 6.25 11.25  22.5 7.5 11.25  22.5 7.5 12.5  22.5 6.25 12.5  21.25 6.25 12.5  21.25 7.5 11.25  21.25 7.5 12.5  21.25 8.75 11.25  22.5 8.75 11.25  22.5 10 11.25  22.5 10 12.5  22.5 8.75 12.5  21.25 8.75 12.5  21.25 10 11.25  22.5 11.25 11.25  21.25 11.25 11.25  22.5 12.5 11.25  22.5 12.5 12.5  22.5 11.25 12.5  21.25 11.25 12.5  21.25 12.5 11.25  21.25 12.5 12.5  22.5 13.75 11.25  21.25 13.75 11.25  22.5 15 11.25  22.5 15 12.5  22.5 13.75 12.5  21.25 13.75 12.5  21.25 15 11.25  21.25 15 12.5  21.25 16.25 11.25  22.5 16.25 11.25  22.5 16.25 12.5  22.5 17.5 12.5  21.25 16.25 12.5  22.5 1.25 13.75  21.25 1.25 13.75  22.5 2.5 13.75  22.5 2.5 15  22.5 0 13.75  22.5 0 15  22.5 1.25 15  21.25 1.25 15  21.25 2.5 13.75  21.25 3.75 13.75  22.5 3.75 13.75  22.5 5 13.75  22.5 5 15  22.5 3.75 15  21.25 5 13.75  21.25 6.25 13.75  22.5 6.25 13.75  22.5 7.5 13.75  22.5 7.5 15  22.5 6.25 15  21.25 6.25 15  21.25 7.5 13.75  22.5 8.75 13.75  21.25 8.75 13.75  22.5 10 13.75  22.5 10 15  22.5 8.75 15  21.25 8.75 15  21.25 10 13.75  22.5 11.25 13.75  21.25 11.25 13.75  22.5 12.5 13.75  22.5 12.5 15  22.5 11.25 15  21.25 11.25 15  21.25 12.5 13.75  23.75 11.25 13.75  23.75 11.25 15  23.75 12.5 15  25 12.5 15  23.75 12.5 13.75  22.5 13.75 13.75  21.25 13.75 13.75  22.5 15 13.75  22.5 15 15  22.5 13.75 15  21.25 13.75 15  21.25 15 13.75  21.25 15 15  23.75 13.75 13.75  23.75 13.75 15  25 13.75 15  25 15 15  23.75 15 15  23.75 15 13.75  22.5 16.25 13.75  21.25 16.25 13.75  22.5 17.5 13.75  22.5 17.5 15  22.5 16.25 15  21.25 16.25 15  23.75 16.25 13.75  23.75 16.25 15  25 16.25 15  25 17.5 15  23.75 17.5 15  22.5 1.25 16.25  21.25 1.25 16.25  22.5 2.5 16.25  22.5 2.5 17.5  22.5 0 16.25  22.5 0 17.5  22.5 1.25 17.5  21.25 1.25 17.5  21.25 2.5 16.25  22.5 3.75 16.25  21.25 3.75 16.25  22.5 5 16.25  22.5 5 17.5  22.5 3.75 17.5  21.25 5 16.25  22.5 6.25 16.25  21.25 6.25 16.25  22.5 7.5 16.25  22.5 7.5 17.5  22.5 6.25 17.5  21.25 6.25 17.5  21.25 7.5 16.25  22.5 8.75 16.25  21.25 8.75 16.25  22.5 10 16.25  22.5 10 17.5  22.5 8.75 17.5  21.25 8.75 17.5  21.25 10 16.25  22.5 11.25 16.25  21.25 11.25 16.25  22.5 12.5 16.25  22.5 12.5 17.5  22.5 11.25 17.5  21.25 11.25 17.5  21.25 12.5 16.25  20 12.5 17.5  21.25 12.5 17.5  23.75 11.25 16.25  23.75 12.5 16.25  25 12.5 16.25  25 12.5 17.5  23.75 11.25 17.5  23.75 12.5 17.5  22.5 13.75 16.25  21.25 13.75 16.25  22.5 15 16.25  22.5 15 17.5  22.5 13.75 17.5  21.25 13.75 17.5  21.25 15 16.25  20 15 17.5  21.25 15 17.5  23.75 13.75 16.25  25 13.75 16.25  25 15 16.25  25 15 17.5  25 13.75 17.5  23.75 13.75 17.5  23.75 15 16.25  23.75 15 17.5  22.5 16.25 16.25  21.25 16.25 16.25  22.5 17.5 16.25  22.5 17.5 17.5  22.5 16.25 17.5  21.25 16.25 17.5  23.75 16.25 16.25  25 16.25 16.25  25 17.5 16.25  25 17.5 17.5  25 16.25 17.5  23.75 16.25 17.5  23.75 17.5 16.25  23.75 17.5 17.5  22.5 1.25 18.75  21.25 1.25 18.75  22.5 2.5 18.75  22.5 2.5 20  22.5 0 18.75  22.5 0 20  22.5 1.25 20  22.5 3.75 18.75  21.25 3.75 18.75  22.5 5 18.75  22.5 5 20  22.5 3.75 20  22.5 6.25 18.75  21.25 6.25 18.75  22.5 7.5 18.75  22.5 7.5 20  22.5 6.25 20  21.25 6.25 20  22.5 8.75 18.75  21.25 8.75 18.75  22.5 10 18.75  22.5 10 20  22.5 8.75 20  21.25 8.75 20  21.25 10 18.75  21.25 10 20  23.75 8.75 18.75  23.75 8.75 20  23.75 10 20  25 10 20  23.75 10 18.75  22.5 11.25 18.75  21.25 11.25 18.75  22.5 12.5 18.75  22.5 12.5 20  22.5 11.25 20  21.25 11.25 20  21.25 12.5 18.75  21.25 12.5 20  23.75 11.25 18.75  23.75 11.25 20  25 11.25 20  25 12.5 20  23.75 12.5 18.75  25 12.5 18.75  23.75 12.5 20  21.25 13.75 18.75  22.5 13.75 18.75  22.5 15 18.75  22.5 15 20  22.5 13.75 20  21.25 13.75 20  21.25 15 18.75  23.75 13.75 18.75  25 13.75 18.75  25 15 18.75  25 15 20  25 13.75 20  23.75 13.75 20  23.75 15 18.75  23.75 15 20  21.25 16.25 18.75  22.5 16.25 18.75  22.5 17.5 18.75  22.5 17.5 20  22.5 16.25 20  21.25 16.25 20  23.75 16.25 18.75  25 16.25 18.75  25 17.5 18.75  25 17.5 20  25 16.25 20  23.75 16.25 20  23.75 17.5 18.75  23.75 17.5 20  23.75 18.75 18.75  23.75 18.75 20  22.5 6.25 21.25  21.25 6.25 21.25  22.5 7.5 21.25  22.5 7.5 22.5  22.5 5 21.25  22.5 6.25 22.5  23.75 6.25 21.25  23.75 6.25 22.5  23.75 7.5 22.5  25 7.5 22.5  23.75 7.5 21.25  22.5 8.75 21.25  21.25 8.75 21.25  22.5 10 21.25  22.5 10 22.5  22.5 8.75 22.5  21.25 10 21.25  23.75 8.75 21.25  23.75 8.75 22.5  25 8.75 22.5  25 10 22.5  23.75 10 21.25  25 10 21.25  23.75 10 22.5  22.5 11.25 21.25  21.25 11.25 21.25  22.5 12.5 21.25  22.5 12.5 22.5  22.5 11.25 22.5  21.25 12.5 21.25  23.75 11.25 21.25  25 11.25 21.25  25 12.5 21.25  25 12.5 22.5  25 11.25 22.5  23.75 11.25 22.5  23.75 12.5 21.25  23.75 12.5 22.5  22.5 13.75 21.25  21.25 13.75 21.25  22.5 15 21.25  22.5 15 22.5  22.5 13.75 22.5  23.75 13.75 21.25  25 13.75 21.25  25 15 21.25  25 15 22.5  25 13.75 22.5  23.75 13.75 22.5  23.75 15 21.25  23.75 15 22.5  22.5 16.25 21.25  21.25 16.25 21.25  22.5 17.5 21.25  22.5 17.5 22.5  22.5 16.25 22.5  23.75 16.25 21.25  25 16.25 21.25  25 17.5 21.25  25 17.5 22.5  25 16.25 22.5  23.75 16.25 22.5  23.75 17.5 21.25  23.75 17.5 22.5  23.75 18.75 21.25  23.75 7.5 23.75  25 7.5 23.75  22.5 7.5 23.75  23.75 8.75 23.75  25 8.75 23.75  25 10 23
[...]
<PointData  Vectors="u"> 
<DataArray  type="Float64"  Name="u"  NumberOfComponents="3" format="ascii">1.9999999998249100e+02 6.2915450430222440e-10 8.1338587331354316e-11  1.9999999998227273e+02 2.7934224070548764e-11 6.7367384474776738e-11  1.9999999998308309e+02 -7.1241399223216424e-11 -3.2041588564642280e-11  1.9999999998317500e+02 -1.3728172485558509e-10 -3.3219196231804052e-11  1.9999999998309943e+02 -2.3973494280850410e-11 -5.0554401857954481e-11  1.9999999998297255e+02 -4.6312839950434540e-10 -7.8018289868542348e-12  1.9999999998251587e+02 7.8602929159066492e-11 1.0148373840989665e-10  1.9999999998413637e+02 1.0730219104740797e-10 1.4990971872037860e-10  1.9999999998312398e+02 6.4229982045097974e-11 -8.1592706089755569e-11  1.9999999998414526e+02 1.6295349439364719e-10 -2.1451536967302671e-11  1.9999999998310633e+02 -2.6242981103365681e-10 -3.7469502093687921e-11  1.9999999998402689e+02 4.8107863109848496e-11 -4.9974786517649236e-13  1.9999999998315155e+02 -6.6902372548285666e-11 -5.0345139882050001e-11  1.9999999998307428e+02 -4.6965036597760659e-11 -1.2867884101307226e-10  1.9999999998230976e+02 3.6770366171604193e-11 9.3357900727530491e-11  1.9999999998248433e+02 1.3288061637664085e-10 7.0813460557656534e-11  1.9999999998402293e+02 -1.8131162100991488e-11 2.3914003196868939e-11  1.9999999998412250e+02 1.4675403611504869e-10 1.2345752470800643e-10  1.9999999998318435e+02 3.0645209608775268e-11 2.2555968069034555e-11  1.9999999998410200e+02 1.3722252815777302e-10 4.9079142275123828e-12  1.9999999998315965e+02 -2.1946859468696644e-10 -1.2346369122263447e-12  1.9999999998398286e+02 -7.3379410828067613e-11 -3.9553598326590084e-11  1.9999999998319842e+02 -3.0100281083518519e-11 -2.3390892411649428e-11  1.9999999998319291e+02 -1.2887530205820949e-10 -2.1010928842662141e-10  1.9999999998227912e+02 -3.5690417769603863e-11 6.6026597078070544e-11  1.9999999998247023e+02 1.5692863418817190e-10 6.3529137505170805e-11  1.9999999998426949e+02 -4.9168462349303297e-11 -1.8863771268531816e-11  1.9999999998409677e+02 -1.7581251378066551e-12 2.0259076264548341e-11  1.9999999998407046e+02 1.5989114816645254e-10 5.2251538724651488e-11  1.9999999998321232e+02 2.8398848144881008e-13 6.7373434261392099e-11  1.9999999998216370e+02 -9.2331829048516607e-11 -8.0244169889835752e-11  1.9999999998307666e+02 -4.5902973348640487e-11 -5.4115054247094783e-11  1.9999999998231317e+02 -1.0193980199791304e-11 -1.4636922386913264e-11  1.9999999998248919e+02 1.0426621413818391e-10 1.2633956680584615e-10  1.9999999998229285e+02 9.5860217497273527e-11 2.7589538575108646e-11  1.9999999998311444e+02 -3.3679752373127725e-10 5.4635307923647181e-11  1.9999999998296886e+02 4.0285436103593146e-11 -1.5183283499981217e-10  1.9999999998311787e+02 4.6651492914192817e-11 -5.9243278052420890e-11  1.9999999998311867e+02 -4.9810430085073674e-11 -5.1068208181915147e-11  1.9999999998220690e+02 -7.6867958112607237e-11 -9.0526732838975443e-11  1.9999999998227702e+02 3.6899361269807752e-11 1.4600701843013400e-12  1.9999999998250883e+02 1.0759322200872467e-10 1.0683513687616162e-10  1.9999999998309625e+02 -1.4502056806231141e-10 -1.1991922190857937e-10  1.9999999998317523e+02 4.2863046905660855e-11 -2.6518817626266439e-12  1.9999999998308672e+02 -7.3928113007362269e-11 -6.4121686435966225e-11  1.9999999998227781e+02 -8.9563968132411946e-11 -9.9965458682468667e-11  1.9999999998236029e+02 -4.0100948039857989e-11 8.2795657870512073e-12  1.9999999998320638e+02 -4.4427425703300107e-11 -8.1703302216585940e-11  1.9999999998320538e+02 -4.6449282990000574e-11 -6.6827194627895793e-11  1.9999999998319257e+02 -1.6542659608870625e-10 1.2336516742716512e-12  1.9999999998244297e+02 -2.0135779777251008e-10 -1.5728456641727936e-10  1.9999999998246469e+02 -3.2963138922891927e-11 4.9346993551672069e-11  1.9999999998244903e+02 1.5656441172075048e-10 1.7247283803706594e-11  1.9999999998223083e+02 8.3088036850830428e-11 -2.1353727158177863e-11  1.9999999998245084e+02 1.4883226345416255e-10 1.0507518844385806e-10  1.9999999998406699e+02 4.0561965601056341e-12 -2.1093790140274864e-11  1.9999999998410198e+02 1.4936723233263311e-10 1.6046577284461290e-11  1.9999999998311873e+02 -1.5678678303638108e-10 -8.8686231818407672e-11  1.9999999998319333e+02 -4.1154211083098819e-11 1.0415175894767735e-10  1.9999999998313544e+02 -5.9159065704559076e-11 -4.8443530873964699e-11  1.9999999998302545e+02 -1.6411012330411930e-10 -5.4315449969622118e-11  1.9999999998227304e+02 -5.2100818911181638e-11 -1.0964462835367730e-10  1.9999999998232062e+02 2.0258934708431674e-11 1.6016133880642934e-10  1.9999999998245795e+02 1.4028752596594352e-10 5.3578046206958974e-11  1.9999999998230089e+02 1.9974839903155971e-11 -1.5519965922695938e-11  1.9999999998248586e+02 1.5906624543054102e-10 1.2278670561459757e-10  1.9999999998228168e+02 4.1045731189321080e-11 2.8543266221213578e-12  1.9999999998417172e+02 1.5510829972748834e-10 1.8466867522846987e-11  1.9999999998308883e+02 -1.3416518997828862e-10 -7.9304752479994586e-11  1.9999999998320098e+02 -2.9458896151581448e-12 9.0759970066942888e-11  1.9999999998313456e+02 -6.0470605679314949e-11 -3.0623489613288920e-11  1.9999999998300689e+02 -2.4153523277014492e-10 -9.7036811961355327e-11  1.9999999998221162e+02 -1.1766013395492760e-10 -5.0668643782903150e-11  1.9999999998227730e+02 -2.9498172424272284e-11 1.2587424620139755e-10  1.9999999998249174e+02 1.5163014554866670e-10 2.1124416150456444e-11  1.9999999998223223e+02 5.9429315889433922e-11 6.1069978005547373e-11  1.9999999998246784e+02 1.1307500968831262e-10 8.9874121009179536e-11  1.9999999998226653e+02 9.0595483332784906e-12 4.3679994661158802e-11  1.9999999998310670e+02 -1.2731257389313418e-10 -2.4796651439895929e-11  1.9999999998315366e+02 -2.6707718702419987e-11 1.2155862816595128e-10  1.9999999998220099e+02 -1.1365374511509244e-10 -7.0526865832246106e-11  1.9999999998232039e+02 2.2202510363184805e-11 9.4541288848681839e-11  1.9999999998315784e+02 -1.2731758815287558e-10 -4.9062484607669369e-11  1.9999999998303392e+02 -1.6780353453741670e-10 -1.5196975248606550e-11  1.9999999998250070e+02 6.6412900953202574e-11 1.7653195572601957e-11  1.9999999998589414e+02 6.7146655657390728e-10 7.5508357026132075e-10  1.9999999998480757e+02 -1.3469836349144473e-10 -1.5444049164645718e-10  1.9999999998470042e+02 -2.8282316898395319e-10 -4.8232992622857415e-10  1.9999999998486888e+02 -1.2225519496795006e-10 9.6385413264407400e-14  1.9999999998419335e+02 6.7718822709020348e-10 7.1663630622092572e-10  1.9999999998389603e+02 -9.2275793950092800e-11 -2.2005620128475626e-10  1.9999999998407239e+02 -7.2238067211194103e-11 1.1394498889311676e-11  1.9999999998420952e+02 1.8706512552319831e-10 6.6069380729044896e-10  1.9999999998402819e+02 2.0957577633447593e-11 -4.7301621633470642e-11  1.9999999998418903e+02 1.4309709282554996e-10 2.0291230690654523e-10  1.9999999998481795e+02 -2.9969466586327756e-10 -7.8248043796049647e-11  1.9999999998403382e+02 4.5619428590797699e-11 -8.6681884479165030e-11  1.9999999998415626e+02 5.5053099589101026e-10 1.5550632856810613e-10  1.9999999998399366e+02 -2.6179339144479531e-11 1.4924570890057674e-10  1.9999999998473908e+02 2.4427365140478779e-11 -6.8580035357149703e-11  1.9999999998479589e+02 3.9290216782243143e-11 2.3184163555545437e-11  1.9999999998588603e+02 2.0983976436752885e-10 7.3196336188722322e-10  1.9999999998476210e+02 -1.6904392313276036e-10 -2.1173487203102770e-10  1.9999999998488531e+02 -7.4793184614486809e-12 2.9587449282319379e-11  1.9999999998491421e+02 5.7793574365925171e-11 -2.8442576967788949e-11  1.9999999998484805e+02 -5.0735197891022306e-11 -1.8245298670955618e-10  1.9999999998470551e+02 -1.9139742892648261e-10 -4.5635808208919223e-10  1.9999999998391360e+02 -7.0992248873235700e-11 -1.7033892505364747e-10  1.9999999998393520e+02 -2.9296634355768721e-11 -6.0982964050864535e-11  1.9999999998417886e+02 1.3813137241281967e-10 6.9000493227092546e-10  1.9999999998397863e+02 4.5723328799894218e-11 -4.9155010015421041e-11  1.9999999998416479e+02 1.1854692584261844e-10 1.3558702471090410e-10  1.9999999998399889e+02 1.3436590265104339e-11 3.6554841269489778e-11  1.9999999998482434e+02 -6.0773450325690968e-11 -1.7215494863997939e-10  1.9999999998567705e+02 -4.5037232234885514e-11 -4.0785348705879757e-11  1.9999999998589621e+02 1.3270183831362740e-10 6.8840676234025571e-10  1.9999999998481198e+02 -1.1393068598808455e-10 -1.4964021813492903e-10  1.9999999998485205e+02 -7.2747456948511503e-11 -1.4423645910852094e-11  1.9999999998483565e+02 -8.8835659642178988e-11 -1.5596715116895205e-10  1.9999999998473325e+02 -1.6635902952716581e-10 -4.7017898189837468e-10  1.9999999998392610e+02 -1.4103695291221838e-10 -1.6925321961152164e-10  1.9999999998395799e+02 -4.3115203907103158e-11 -4.1179991951538626e-12  1.9999999998416590e+02 8.1263027870709398e-11 7.0965845142529706e-10  1.9999999998397362e+02 -3.1416589701841652e-11 -7.9015457257665246e-11  1.9999999998418014e+02 8.0745681300842875e-11 1.5105692086386144e-10  1.9999999998399397e+02 -6.0433018639139055e-11 1.4530361885612404e-11  1.9999999998399593e+02 -1.2917520584275785e-10 -1.7632275980277968e-10  1.9999999998401543e+02 -3.9803996547277758e-11 -4.9423427845784470e-11  1.9999999998480766e+02 -1.0055000583676062e-10 -1.5274008987206731e-10  1.9999999998422135e+02 1.6300890869129154e-10 6.9403009385424343e-10  1.9999999998400722e+02 3.0708546939744634e-11 -2.9462882476291634e-11  1.9999999998417428e+02 1.3397265007929782e-10 1.4200136537722192e-10  1.9999999998399485e+02 -2.3345198677355937e-11 3.5196237291250576e-11  1.9999999998478492e+02 -1.6210144499736718e-10 -1.5299845205916099e-10  1.9999999998399176e+02 -1.4489140875926884e-10 -1.8773214766026682e-10  1.9999999998399437e+02 -4.9800101244838125e-11 -2.9807302749872091e-11  1.9999999998482659e+02 -8.5111650139031109e-11 -1.6438725505361158e-10  1.9999999998420046e+02 1.5622267324161831e-10 6.9190181422258028e-10  1.9999999998399608e+02 3.1049791126752014e-12 -9.6376722063037317e-11  1.9999999998416217e+02 7.5664159667154862e-11 1.7409079001613849e-10  1.9999999998399639e+02 -3.1162296299215939e-11 5.4578350405726996e-11  1.9999999998392423e+02 4.9626071353441197e-11 -9.6271430616869068e-11  1.9999999998479237e+02 -6.3123279596406473e-11 -6.0520308505111429e-11  1.9999999998403888e+02 3.4215689177404862e-11 -9.8980792567531677e-12  1.9999999998420435e+02 9.8830908618000133e-11 1.0302493500943910e-10  1.9999999998396694e+02 8.6414418081965915e-11 4.9072219283326782e-11  1.9999999998480226e+02 -3.4854559588956319e-10 -9.6715517953425690e-12  1.9999999998412460e+02 5.9629494979036239e-10 1.4702214367573868e-10  1.9999999998394901e+02 -7.3952465011096701e-11 2.2828226097863803e-11  1.9999999998474024e+02 -2.2568184168085347e-11 -1.3716959197120587e-10  1.9999999998466751e+02 3.0840519969562988e-11 -1.8159488880958467e-10  1.9999999998396271e+02 -1.0586467412728021e-10 -1.3422702726412439e-10  1.9999999998483219e+02 -7.2357958138039597e-11 -6.2653687939002081e-11  1.9999999998400102e+02 1.5171804686578431e-11 -3.7905822564731766e-11  1.9999999998417286e+02 9.5576760192988253e-11 5.4557217613805173e-11  1.9999999998400725e+02 -2.6686474285967034e-11 -4.2038043338129268e-11  1.9999999998476230e+02 -8.6798868622141169e-11 -2.1649444131954294e-10  1.9999999998480953e+02 -1.7293797441743585e-10 -1.0213649252119525e-10  1.9999999998583363e+02 1.2338606647156581e-10 1.1882554996833100e-10  1.9999999998484657e+02 8.5183027332262418e-12 -3.2788423115060143e-11  1.9999999998396746e+02 -1.0674615700529334e-10 -1.4182616448812936e-10  1.9999999998482210e+02 -8.8870871447316506e-11 -9.6883689282778629e-11  1.9999999998396902e+02 3.5052830508592253e-12 1.1439641280527606e-11  1.9999999998420660e+02 1.3108619746215675e-10 1.0716349953506312e-10  1.9999999998397868e+02 -1.5062489829579032e-11 -1.5272552324796024e-11  1.9999999998475826e+02 -8.8681250987237859e-11 -1.2340693502049638e-10  1.9999999998481633e+02 -1.5592900058465691e-10 -1.1821923084289799e-10  1.9999999998397908e+02 -1.2938593022635420e-10 -6.3343095355783960e-11  1.9999999998481070e+02 -1.4618469463868630e-10 -9.9805413426855205e-11  1.9999999998402811e+02 2.6997159683218020e-11 7.0474035418422952e-12  1.9999999998417681e+02 1.1486288692019478e-10 1.1169686152749322e-10  1.9999999998400330e+02 -3.3881378130621995e-11 4.1009159556555481e-12  1.9999999998481570e+02 -1.3006884074192701e-10 -1.4282649465563182e-10  1.9999999998479782e+02 -8.8212138069698644e-11 -8.9824580641637501e-11  1.9999999998486243e+02 4.8243291663196017e-11 4.1036434168961280e-11  1.9999999998387096e+02 -8.6789168382550770e-11 -1.0942483826673653e-10  1.9999999998483534e+02 -8.7478735865409170e-11 -6.6505831182970053e-11  1.9999999998397311e+02 -3.0713941577199294e-11 2.2545444057720178e-11  1.9999999998416502e+02 5.5302037499199886e-11 1.1654523642682767e-10  1.9999999998398908e+02 3.0163510668188149e-11 3.6824382985610145e-11  1.9999999998480965e+02 -9.2893966088786701e-11 -1.9401989163864934e-10  1.9999999998479868e+02 -1.5310525233122416e-10 -5.5020160700114578e-11  1.9999999998392084e+02 -1.1927427188828913e-10 -1.0183713441840908e-10  1.9999999998392676e+02 -2.7146513076083328e-11 4.8437929710755681e-11  1.9999999998478197e+02 -9.3709920667069256e-11 -9.2529190533380419e-11  1.9999999998418622e+02 1.1548871489637956e-10 1.1135160020225184e-10  1.9999999998397749e+02 2.2794378090363970e-12 5.6366950001164769e-12  1.9999999998417476e+02 8.4215602249263344e-11 1.5163977870874478e-10  1.9999999998396180e+02 3.7706207331561680e-12 6.1819884898725425e-11  1.9999999998479467e+02 -1.2467117036901081e-10 -1.2299539642046117e-10  1.9999999998388191e+02 -3.7334283946673682e-11 -1.0647577219671458e-10  1.9999999998480976e+02 -1.0168346736757476e-10 -7.5258099592008436e-11  1.9999999998400938e+02 5.3338622025195197e-11 -5.3220949551451390e-11  1.9999999998419358e+02 5.9650465319047594e-11 1.1251958370819783e-10  1.9999999998395444e+02 2.3034612229088453e-11 -1.1924589111012637e-11  1.9999999998413170e+02 5.2547069030166152e-10 6.9531334436290132e-11  1.9999999998390399e+02 -4.7776153513205481e-11 8.3918156280419454e-12  1.9999999998482323e+02 -3.4990394658911086e-12 -1.8676417630026743e-10  1.9999999998471097e+02 -4.5184430129626231e-11 -1.9343606902849452e-10  1.9999999998586614e+02 4.2541301668361991e-11 1.4935803067995115e-10  1.9999999998486189e+02 -4.4515326827725114e-12 -6.1865040408446181e-11  1.9999999998392886e+02 -1.5063733328667597e-10 -1.2255050326765054e-10  1.9999999998481428e+02 -4.7298207543455148e-11 -6.0168395675992839e-11  1.9999999998399801e+02 5.6741408558460982e-11 2.9165792981759520e-11  1.9999999998417985e+02 1.3268529757068948e-10 8.7692331551882450e-11  1.9999999998400244e+02 1.6299834960293657e-11 1.7378315376886295e-11  1.9999999998476503e+02 -4.7246487153372565e-11 -1.7871231925900555e-10  1.9999999998474595e+02 -1.6854107009021395e-10 -7.2953476245022085e-11  1.9999999998585943e+02 1.4229806322056305e-10 1.1389577487270954e-10  1.9999999998485166e+02 1.4331970605952245e-11 2.5288231416844477e-11  1.9999999998479672e+02 -6.2440236026707387e-11 -7.9998918788221276e-11  1.9999999998392428e+02 -7.4102614638047838e-11 -7.2892226937531701e-11  1.9999999998400148e+02 1.4239703092947732e-11 -3.2523505518515467e-11  1.9999999998415529e+02 1.2414808365925169e-10 9.4989150065479928e-11  1.9999999998396191e+02 -2.1697876292804516e-11 3.5902928974675923e-12  1.9999999998480260e+02 -9.5113261248359554e-11 -1.3249238359024061e-10  1.9999999998482843e+02 -2.0101629868038890e-10 -8.5800533687067572e-11  1.9999999998573927e+02 -3.2362883188904130e-11 2.9810234317901269e-11  1.9999999998586503e+02 1.2396348993353231e-10 1.4682504290396827e-10  1.9999999998487979e+02 2.0466809317735096e-11 3.9431175083071836e-11  1.9999999998393989e+02 -1.0535783725036446e-10 -6.6123181306175819e-11  1.9999999998480300e+02 -9.1036444259746686e-11 -5.7931646233983327e-11  1.9999999998398363e+02 1.7707739793946508e-11 1.2134531585115455e-11  1.9999999998418002e+02 9.9054196130665497e-11 1.3580196685720654e-10  1.9999999998397280e+02 3.9199583496115812e-11 2.7801105310199659e-11  1.9999999998480138e+02 -9.4757498206795122e-11 -1.3855380650017475e-10  1.9999999998480396e+02 -1.6700967726145087e-10 -8.6734391348105638e-11  1.9999999998393474e+02 -9.1490627082550924e-11 -7.5171318406692688e-11  1.9999999998482053e+02 -9.9011207326659254e-11 -7.6632183295130325e-11  1.9999999998401540e+02 2.8350818635065713e-11 4.3567506476251021e-11  1.9999999998420742e+02 7.7549377367163491e-11 1.1005958530067068e-10  1.9999999998401572e+02 1.4850946501295674e-11 2.5643342462576677e-11  1.9999999998481746e+02 -1.2305749928225090e-10 -1.4030129016598659e-10  1.9999999998480192e+02 -1.0907102734078464e-10 -9.7169904313597633e-11  1.9999999998488826e+02 4.3999502877925313e-11 4.9116207073608187e-11  1.9999999998393892e+02 -1.2889674038529902e-10 -6.5982352564889707e-11  1.9999999998481016e+02 -7.9497455828190388e-11 -8.0497959517187257e-11  1.9999999998398627e+02 3.3128636110555268e-11 -4.5029524513600858e-12  1.9999999998416183e+02 1.1170472676899308e-10 1.3575833627115097e-10  1.9999999998396962e+02 6.2525009655568339e-12 3.2035705313611140e-11  1.9999999998480888e+02 -1.0259682916673072e-10 -1.1712692914740957e-10  1.9999999998384266e+02 -4.9228056413338465e-11 -1.6417347048659534e-10  1.9999999998482323e+02 -8.0022813358959758e-11 -9.9233731756784600e-11  1.9999999998400764e+02 8.1090177862546338e-11 -6.6012589378907633e-11  1.9999999998419091e+02 8.8664720550889471e-11 1.7132435566516767e-10  1.9999999998389183e+02 7.3198400041380379e-11 -2.5685207167293078e-11  1.9999999998414557e+02 5.4645979658760218e-10 1.4563835481105712e-10  1.9999999998393787e+02 -1.0295123683862403e-10 1.1520668313496804e-10  1.9999999998479177e+02 3.7331728097841992e-12 -1.3299494574809791e-10  1.9999999998467678e+02 1.0609462837296438e-11 -2.0257836162551157e-10  1.9999999998480894e+02 1.7827718686747338e-11 -3.5826457724823019e-11  1.9999999998482707e+02 -6.3038463488723167e-11 -8.1065473246450568e-11  1.9999999998399710e+02 -8.2108838033259475e-11 -9.2061990466531909e-11  1.9999999998395484e+02 3.3847200293363175e-11 -1.8976495424484609e-11  1.9999999998416934e+02 1.4174469003772065e-10 1.1979805854114550e-10  1.9999999998404138e+02 2.1151189214675484e-11 -1.4144344286642008e-11  1.9999999998476713e+02 -6.1608425876882467e-11 -1.3181768482949907e-10  1.9999999998476426e+02 -1.1764561049021470e-10 -1.0230715316478342e-10  1.9999999998584588e+02 1.4158554508928405e-10 1.1848841829008617e-10  1.9999999998490043e+02 4.8527288463802817e-11 8.7336251022612992e-12  1.9999999998575717e+02 6.4150353544377510e-11 -3.2588524611697635e-11  1.9999999998480726e+02 -7.2725083522321313e-11 -8.2580114968696961e-11  1.9999999998389663e+02 -9.4361117972264179e-11 -6.4773390655425481e-11  1.9999999998395404e+02 5.1766377566106593e-11 2.9904510530979521e-11  1.9999999998419545e+02 1.0627832327792292e-10 1.1807271845183370e-10  1.9999999998399105e+02 1.1935148274378889e-11 1.8855823580763481e-11  1.9999999998480934e+02 -9.0536665960892587e-11 -1.6552966121381487e-10  1.9999999998478549e+02 -1.9481439411648232e-10 -9.7997847113325129e-11  1.9999999998587157e+02 1.1751922365101438e-10 9.2751366263203342e-11  1.9999999998483707e+02 2.7755423670774666e-11 1.2020115802550963e-11  1.9999999998484049e+02 -7.8247162474680753e-11 -8.8451940536602944e-11  1.9999999998392013e+02 -1.1194267340451174e-10 -1.0938665696405503e-10  1.9999999998397720e+02 1.8847686773910123e-11 -4.2164033132954719e-11  1.9999999998415873e+02 9.4389984232293655e-11 1.0856423555692222e-10  1.9999999998401947e+02 1.6156270888044759e-13 4.5403502192345088e-11  1.9999999998476144e+02 -9.8226838310004666e-11 -1.5927891325798918e-10  1.9999999998479780e+02 -1.4619234833589054e-10 -8.9721684316848449e-11  1.9999999998484873e+02 2.5700550614068488e-11 1.0400507572991040e-12  1.9999999998392872e+02 -1.1196330091916426e-10 -1.1800986680476578e-10  1.9999999998480365e+02 -9.5432879186971138e-11 -7.125760566673