<?xml version="1.0"?>
<VTKFile type="UnstructuredGrid"  version="0.1"  >
<UnstructuredGrid>
<Piece  NumberOfPoints="3924" NumberOfCells="19102">
<Points>
<DataArray  type="Float64"  NumberOfComponents="3"  format="ascii">0 0 25  1.25 1.25 26.25  1.25 1.25 25  1.25 0 25  2.5 0 25  2.5 1.25 26.25  2.5 1.25 25  2.5 2.5 25  2.5 2.5 26.25  2.5 2.5 27.5  1.25 0 26.25  2.5 0 26.25  2.5 0 27.5  0 0 26.25  0 0 27.5  0 1.25 25  0 2.5 25  1.25 2.5 26.25  1.25 2.5 25  0 1.25 26.25  0 2.5 26.25  0 2.5 27.5  3.75 1.25 26.25  3.75 1.25 25  3.75 0 25  5 0 25  5 1.25 26.25  5 1.25 25  5 2.5 25  5 2.5 26.25  5 2.5 27.5  3.75 0 26.25  5 0 26.25  5 0 27.5  3.75 0 27.5  3.75 2.5 26.25  3.75 2.5 25  3.75 2.5 27.5  6.25 1.25 26.25  6.25 0 26.25  6.25 1.25 25  6.25 2.5 26.25  6.25 2.5 25  7.5 2.5 25  1.25 3.75 26.25  1.25 3.75 25  2.5 3.75 26.25  2.5 3.75 25  2.5 5 25  2.5 5 26.25  2.5 5 27.5  0 3.75 25  0 5 25  1.25 5 26.25  1.25 5 25  0 3.75 26.25  0 5 26.25  0 5 27.5  1.25 5 27.5  3.75 3.75 26.25  3.75 3.75 25  5 3.75 26.25  5 3.75 25  5 5 25  5 5 26.25  5 5 27.5  5 3.75 27.5  3.75 5 26.25  3.75 5 25  3.75 5 27.5  6.25 3.75 26.25  6.25 3.75 25  7.5 3.75 25  7.5 5 25  6.25 5 26.25  6.25 5 25  1.25 6.25 26.25  1.25 6.25 25  2.5 6.25 26.25  2.5 6.25 25  2.5 7.5 25  2.5 7.5 26.25  2.5 7.5 27.5  0 6.25 25  0 7.5 25  1.25 7.5 26.25  1.25 7.5 25  0 6.25 26.25  0 6.25 27.5  0 7.5 27.5  0 7.5 26.25  3.75 6.25 26.25  3.75 6.25 25  5 6.25 26.25  5 6.25 25  5 7.5 25  5 7.5 26.25  5 7.5 27.5  5 6.25 27.5  3.75 7.5 26.25  3.75 7.5 25  6.25 6.25 26.25  6.25 6.25 25  7.5 6.25 26.25  7.5 6.25 25  7.5 7.5 25  6.25 7.5 26.25  6.25 7.5 25  1.25 8.75 26.25  1.25 8.75 25  2.5 8.75 26.25  2.5 8.75 25  2.5 10 25  0 8.75 25  0 10 25  1.25 10 25  0 8.75 26.25  3.75 8.75 26.25  3.75 8.75 25  5 8.75 26.25  5 8.75 25  5 10 25  3.75 10 25  6.25 8.75 26.25  6.25 8.75 25  7.5 8.75 26.25  7.5 8.75 25  7.5 10 25  6.25 10 25  3.75 11.25 26.25  3.75 11.25 25  5 11.25 25  5 12.5 25  2.5 11.25 25  2.5 12.5 25  3.75 12.5 25  6.25 11.25 26.25  6.25 11.25 25  7.5 11.25 26.25  7.5 11.25 25  7.5 12.5 25  6.25 12.5 25  17.5 0 22.5  18.75 1.25 23.75  18.75 1.25 22.5  18.75 0 22.5  20 0 22.5  20 1.25 23.75  20 1.25 22.5  20 2.5 22.5  20 2.5 23.75  20 2.5 25  18.75 0 23.75  20 0 23.75  20 0 25  17.5 0 23.75  17.5 0 25  18.75 0 25  17.5 1.25 22.5  17.5 2.5 22.5  18.75 2.5 23.75  18.75 2.5 22.5  17.5 1.25 23.75  17.5 1.25 25  17.5 2.5 25  17.5 2.5 23.75  18.75 2.5 25  21.25 1.25 23.75  21.25 1.25 22.5  21.25 0 22.5  22.5 0 22.5  22.5 1.25 23.75  22.5 1.25 22.5  22.5 2.5 22.5  22.5 2.5 23.75  22.5 2.5 25  21.25 0 23.75  22.5 0 23.75  22.5 0 25  22.5 1.25 25  21.25 2.5 23.75  21.25 2.5 22.5  23.75 1.25 23.75  23.75 0 23.75  23.75 1.25 25  23.75 0 25  18.75 3.75 23.75  20 3.75 23.75  17.5 3.75 23.75  21.25 3.75 23.75  21.25 3.75 22.5  22.5 3.75 22.5  22.5 5 22.5  6.25 0 25  7.5 0 25  7.5 1.25 26.25  7.5 1.25 25  7.5 0 26.25  8.75 1.25 26.25  8.75 1.25 25  8.75 0 25  10 0 25  10 1.25 26.25  10 1.25 25  10 2.5 25  10 2.5 26.25  10 2.5 27.5  8.75 0 26.25  10 0 26.25  10 0 27.5  10 1.25 27.5  8.75 2.5 26.25  8.75 2.5 25  11.25 1.25 26.25  11.25 1.25 25  11.25 0 25  12.5 0 25  12.5 1.25 26.25  12.5 1.25 25  12.5 2.5 25  11.25 0 26.25  12.5 0 26.25  12.5 0 27.5  11.25 0 27.5  11.25 2.5 26.25  11.25 2.5 25  13.75 1.25 26.25  13.75 1.25 25  13.75 0 25  15 0 25  15 1.25 26.25  15 1.25 25  15 2.5 25  13.75 0 26.25  15 0 26.25  15 0 27.5  13.75 0 27.5  13.75 2.5 25  16.25 1.25 26.25  16.25 1.25 25  16.25 0 25  16.25 0 26.25  16.25 2.5 25  23.75 1.25 26.25  23.75 0 26.25  8.75 3.75 26.25  8.75 3.75 25  10 3.75 26.25  10 3.75 25  10 5 25  8.75 5 26.25  8.75 5 25  11.25 3.75 26.25  11.25 3.75 25  12.5 3.75 25  12.5 5 25  11.25 5 25  8.75 6.25 26.25  8.75 6.25 25  10 6.25 25  10 7.5 25  8.75 7.5 25  8.75 8.75 26.25  8.75 8.75 25  10 8.75 26.25  10 8.75 25  10 10 25  8.75 10 26.25  8.75 10 25  11.25 8.75 26.25  11.25 8.75 25  11.25 7.5 25  12.5 7.5 25  11.25 10 25  12.5 10 25  8.75 11.25 26.25  8.75 11.25 25  10 11.25 25  10 12.5 25  8.75 12.5 25  0 0 0  1.25 1.25 1.25  1.25 1.25 0  1.25 0 0  2.5 0 0  2.5 1.25 1.25  2.5 1.25 0  2.5 2.5 0  2.5 2.5 1.25  2.5 2.5 2.5  1.25 0 1.25  2.5 0 1.25  2.5 0 2.5  2.5 1.25 2.5  0 0 1.25  0 0 2.5  1.25 1.25 2.5  1.25 0 2.5  0 1.25 0  0 2.5 0  1.25 2.5 1.25  1.25 2.5 0  0 1.25 1.25  0 1.25 2.5  0 2.5 2.5  1.25 2.5 2.5  0 2.5 1.25  3.75 1.25 1.25  3.75 1.25 0  3.75 0 0  5 0 0  5 1.25 1.25  5 1.25 0  5 2.5 0  5 2.5 1.25  5 2.5 2.5  3.75 0 1.25  5 0 1.25  5 0 2.5  5 1.25 2.5  3.75 1.25 2.5  3.75 0 2.5  3.75 2.5 1.25  3.75 2.5 0  3.75 2.5 2.5  6.25 1.25 1.25  6.25 1.25 0  6.25 0 0  7.5 0 0  7.5 1.25 1.25  7.5 1.25 0  7.5 2.5 0  7.5 2.5 1.25  7.5 2.5 2.5  6.25 0 1.25  7.5 0 1.25  7.5 0 2.5  7.5 1.25 2.5  6.25 1.25 2.5  6.25 0 2.5  6.25 2.5 1.25  6.25 2.5 0  6.25 2.5 2.5  8.75 1.25 1.25  8.75 1.25 0  8.75 0 0  10 0 0  10 1.25 1.25  10 1.25 0  10 2.5 0  10 2.5 1.25  10 2.5 2.5  8.75 0 1.25  10 0 1.25  10 0 2.5  10 1.25 2.5  8.75 1.25 2.5  8.75 0 2.5  8.75 2.5 1.25  8.75 2.5 0  8.75 2.5 2.5  1.25 3.75 1.25  1.25 3.75 0  2.5 3.75 1.25  2.5 3.75 0  2.5 5 0  2.5 5 1.25  2.5 5 2.5  2.5 3.75 2.5  1.25 3.75 2.5  0 3.75 0  0 5 0  1.25 5 1.25  1.25 5 0  0 3.75 1.25  0 3.75 2.5  0 5 2.5  1.25 5 2.5  0 5 1.25  3.75 3.75 1.25  3.75 3.75 0  5 3.75 1.25  5 3.75 0  5 5 0  5 5 1.25  5 5 2.5  5 3.75 2.5  3.75 3.75 2.5  3.75 5 1.25  3.75 5 0  3.75 5 2.5  6.25 3.75 1.25  6.25 3.75 0  7.5 3.75 1.25  7.5 3.75 0  7.5 5 0  7.5 5 1.25  7.5 5 2.5  7.5 3.75 2.5  6.25 3.75 2.5  6.25 5 1.25  6.25 5 0  6.25 5 2.5  8.75 3.75 1.25  8.75 3.75 0  10 3.75 1.25  10 3.75 0  10 5 0  10 5 1.25  10 5 2.5  10 3.75 2.5  8.75 3.75 2.5  8.75 5 1.25  8.75 5 0  8.75 5 2.5  1.25 6.25 1.25  1.25 6.25 0  2.5 6.25 1.25  2.5 6.25 0  2.5 7.5 0  2.5 7.5 1.25  2.5 7.5 2.5  2.5 6.25 2.5  1.25 6.25 2.5  0 6.25 0  0 7.5 0  1.25 7.5 1.25  1.25 7.5 0  0 6.25 1.25  0 6.25 2.5  0 7.5 2.5  1.25 7.5 2.5  0 7.5 1.25  3.75 6.25 1.25  3.75 6.25 0  5 6.25 1.25  5 6.25 0  5 7.5 0  5 7.5 1.25  5 7.5 2.5  5 6.25 2.5  3.75 6.25 2.5  3.75 7.5 1.25  3.75 7.5 0  3.75 7.5 2.5  6.25 6.25 1.25  6.25 6.25 0  7.5 6.25 1.25  7.5 6.25 0  7.5 7.5 0  7.5 7.5 1.25  7.5 7.5 2.5  7.5 6.25 2.5  6.25 6.25 2.5  6.25 7.5 1.25  6.25 7.5 0  6.25 7.5 2.5  8.75 6.25 1.25  8.75 6.25 0  10 6.25 1.25  10 6.25 0  10 7.5 0  10 7.5 1.25  10 7.5 2.5  10 6.25 2.5  8.75 6.25 2.5  8.75 7.5 1.25  8.75 7.5 0  8.75 7.5 2.5  1.25 8.75 1.25  1.25 8.75 0  2.5 8.75 1.25  2.5 8.75 0  2.5 10 0  2.5 10 1.25  2.5 10 2.5  2.5 8.75 2.5  1.25 8.75 2.5  0 8.75 0  0 10 0  1.25 10 1.25  1.25 10 0  0 8.75 1.25  0 8.75 2.5  0 10 2.5  1.25 10 2.5  0 10 1.25  3.75 8.75 1.25  3.75 8.75 0  5 8.75 1.25  5 8.75 0  5 10 0  5 10 1.25  5 10 2.5  5 8.75 2.5  3.75 8.75 2.5  3.75 10 1.25  3.75 10 0  3.75 10 2.5  6.25 8.75 1.25  6.25 8.75 0  7.5 8.75 1.25  7.5 8.75 0  7.5 10 0  7.5 10 1.25  7.5 10 2.5  7.5 8.75 2.5  6.25 8.75 2.5  6.25 10 1.25  6.25 10 0  6.25 10 2.5  8.75 8.75 1.25  8.75 8.75 0  10 8.75 1.25  10 8.75 0  10 10 0  10 10 1.25  10 10 2.5  10 8.75 2.5  8.75 8.75 2.5  8.75 10 1.25  8.75 10 0  8.75 10 2.5  1.25 11.25 1.25  1.25 11.25 0  2.5 11.25 1.25  2.5 11.25 0  2.5 12.5 0  2.5 12.5 1.25  2.5 12.5 2.5  2.5 11.25 2.5  1.25 11.25 2.5  0 11.25 1.25  0 11.25 2.5  3.75 11.25 1.25  3.75 11.25 0  5 11.25 1.25  5 11.25 0  5 11.25 2.5  3.75 11.25 2.5  6.25 11.25 1.25  6.25 11.25 0  7.5 11.25 1.25  7.5 11.25 0  7.5 11.25 2.5  6.25 11.25 2.5  8.75 11.25 1.25  8.75 11.25 0  8.75 11.25 2.5  1.25 1.25 3.75  2.5 1.25 3.75  2.5 2.5 3.75  2.5 2.5 5  1.25 0 3.75  2.5 0 3.75  2.5 0 5  2.5 1.25 5  0 0 3.75  0 0 5  1.25 1.25 5  1.25 0 5  1.25 2.5 3.75  0 1.25 3.75  0 1.25 5  0 2.5 5  1.25 2.5 5  0 2.5 3.75  3.75 1.25 3.75  5 1.25 3.75  5 2.5 3.75  5 2.5 5  3.75 0 3.75  5 0 3.75  5 0 5  5 1.25 5  3.75 1.25 5  3.75 0 5  3.75 2.5 3.75  3.75 2.5 5  6.25 1.25 3.75  7.5 1.25 3.75  7.5 2.5 3.75  7.5 2.5 5  6.25 0 3.75  7.5 0 3.75  7.5 0 5  7.5 1.25 5  6.25 1.25 5  6.25 0 5  6.25 2.5 3.75  6.25 2.5 5  8.75 1.25 3.75  10 1.25 3.75  10 2.5 3.75  10 2.5 5  8.75 0 3.75  10 0 3.75  10 0 5  10 1.25 5  8.75 1.25 5  8.75 0 5  8.75 2.5 3.75  8.75 2.5 5  1.25 3.75 3.75  2.5 3.75 3.75  2.5 5 3.75  2.5 5 5  2.5 3.75 5  1.25 3.75 5  1.25 5 3.75  0 3.75 3.75  0 3.75 5  0 5 5  1.25 5 5  0 5 3.75  3.75 3.75 3.75  5 3.75 3.75  5 5 3.75  5 5 5  5 3.75 5  3.75 3.75 5  3.75 5 3.75  3.75 5 5  6.25 3.75 3.75  7.5 3.75 3.75  7.5 5 3.75  7.5 5 5  7.5 3.75 5  6.25 3.75 5  6.25 5 3.75  6.25 5 5  8.75 3.75 3.75  10 3.75 3.75  10 5 3.75  10 5 5  10 3.75 5  8.75 3.75 5  8.75 5 3.75  8.75 5 5  1.25 6.25 3.75  2.5 6.25 3.75  2.5 7.5 3.75  2.5 7.5 5  2.5 6.25 5  1.25 6.25 5  1.25 7.5 3.75  0 6.25 3.75  0 6.25 5  0 7.5 5  1.25 7.5 5  0 7.5 3.75  3.75 6.25 3.75  5 6.25 3.75  5 7.5 3.75  5 7.5 5  5 6.25 5  3.75 6.25 5  3.75 7.5 3.75  3.75 7.5 5  6.25 6.25 3.75  7.5 6.25 3.75  7.5 7.5 3.75  7.5 7.5 5  7.5 6.25 5  6.25 6.25 5  6.25 7.5 3.75  6.25 7.5 5  8.75 6.25 3.75  10 6.25 3.75  10 7.5 3.75  10 7.5 5  10 6.25 5  8.75 6.25 5  8.75 7.5 3.75  8.75 7.5 5  1.25 8.75 3.75  2.5 8.75 3.75  2.5 10 3.75  2.5 10 5  2.5 8.75 5  1.25 8.75 5  1.25 10 3.75  0 8.75 3.75  0 8.75 5  0 10 5  1.25 10 5  0 10 3.75  3.75 8.75 3.75  5 8.75 3.75  5 10 3.75  5 10 5  5 8.75 5  3.75 8.75 5  3.75 10 3.75  3.75 10 5  6.25 8.75 3.75  7.5 8.75 3.75  7.5 10 3.75  7.5 10 5  7.5 8.75 5  6.25 8.75 5  6.25 10 3.75  6.25 10 5  8.75 8.75 3.75  10 8.75 3.75  10 10 3.75  10 10 5  10 8.75 5  8.75 8.75 5  8.75 10 3.75  8.75 10 5  1.25 11.25 3.75  2.5 11.25 3.75  2.5 12.5 3.75  2.5 12.5 5  2.5 11.25 5  1.25 11.25 5  0 11.25 3.75  0 11.25 5  0 12.5 5  1.25 12.5 5  3.75 11.25 3.75  5 11.25 3.75  5 11.25 5  3.75 11.25 5  6.25 11.25 3.75  7.5 11.25 3.75  7.5 11.25 5  6.25 11.25 5  8.75 11.25 3.75  8.75 11.25 5  1.25 1.25 6.25  2.5 1.25 6.25  2.5 2.5 6.25  2.5 2.5 7.5  1.25 0 6.25  2.5 0 6.25  2.5 0 7.5  2.5 1.25 7.5  0 0 6.25  0 0 7.5  1.25 1.25 7.5  1.25 0 7.5  1.25 2.5 6.25  0 1.25 6.25  0 1.25 7.5  0 2.5 7.5  1.25 2.5 7.5  0 2.5 6.25  3.75 1.25 6.25  5 1.25 6.25  5 2.5 6.25  5 2.5 7.5  3.75 
[...]
<PointData  Vectors="u"> 
<DataArray  type="Float64"  Name="u"  NumberOfComponents="3" format="ascii">2.0000000000055510e+02 6.6872696455752191e-10 -1.3690779521635278e-10  1.9999999999899572e+02 -5.5130995335013719e-11 -1.0850967435015688e-10  1.9999999999898071e+02 -2.8567452046705149e-10 -1.5345343147174609e-10  1.9999999999900061e+02 -1.8589758730482992e-10 -1.8090669487256454e-10  1.9999999999831513e+02 6.9274136240070332e-10 -1.0954567669357905e-10  1.9999999999794997e+02 -6.9003889831373149e-11 -1.6270670790877872e-10  1.9999999999810788e+02 -1.0493929418134553e-10 -3.8565392516589560e-12  1.9999999999824303e+02 1.5941870176101482e-10 -7.9767653409883793e-12  1.9999999999822919e+02 -4.6311201803514156e-11 -2.5533148666187558e-11  1.9999999999821188e+02 1.2212394156561562e-10 1.1219113057312763e-10  1.9999999999895613e+02 -2.9826191102858166e-10 2.8358250195447454e-11  1.9999999999815768e+02 1.9611221451274956e-11 -3.6122812777627242e-11  1.9999999999825837e+02 5.1165293590179823e-10 1.3023954958716935e-10  2.0000000000003013e+02 -4.9522820207164580e-11 -8.5853026550189861e-11  2.0000000000057983e+02 6.2347681763767123e-10 1.3687314493562662e-10  2.0000000000001077e+02 -1.3950598581420442e-10 6.6270493721440720e-11  2.0000000000054905e+02 2.2619026285356230e-10 -7.6675202706580403e-11  1.9999999999908704e+02 -8.0994262396373163e-11 -1.3251277046536207e-10  1.9999999999903397e+02 2.7779231108700566e-11 4.5358310307428511e-11  1.9999999999971809e+02 -1.1699926295542751e-10 -1.6534462858335182e-11  2.0000000000004684e+02 5.5063478130383445e-12 -3.0309777415345555e-11  2.0000000000058512e+02 1.9952785022049116e-10 1.5601327878816427e-10  1.9999999999716317e+02 -1.3979520767752159e-10 -1.1535909323668515e-10  1.9999999999702590e+02 -3.2214488513452922e-10 -1.1655190497902966e-10  1.9999999999715263e+02 -8.5300823577348036e-11 -5.7323652009915023e-11  1.9999999999647278e+02 7.0829333682620646e-10 -1.0566974001465203e-10  1.9999999999610154e+02 -9.1717252358570825e-11 -1.0392995516880040e-10  1.9999999999627445e+02 -7.7924449124735195e-11 -7.9630928132143415e-11  1.9999999999651095e+02 1.5030215690940461e-10 -8.0688466960130277e-11  1.9999999999634304e+02 6.6701443138016700e-11 1.4655399745353442e-11  1.9999999999647738e+02 1.4427029795476295e-10 1.1570992807870412e-10  1.9999999999717139e+02 -4.0735583158211833e-10 1.4638768471052531e-11  1.9999999999620218e+02 1.4117080094081301e-10 -2.6619917028494716e-11  1.9999999999646994e+02 5.8711860277892630e-10 1.0766493372621465e-10  1.9999999999719111e+02 1.7328783736473817e-11 -7.9302231541199164e-11  1.9999999999712048e+02 -1.5298755476371306e-10 -9.0582543628424375e-11  1.9999999999719921e+02 -7.3667647162646709e-11 5.6023875013899392e-11  1.9999999999726299e+02 7.2681229820942915e-11 -1.1156271923711405e-10  1.9999999999538448e+02 -1.3923679434588723e-10 -3.6263062248583183e-11  1.9999999999522802e+02 -5.6109328380391216e-10 -2.6700702896140172e-13  1.9999999999534103e+02 -1.1714158764263743e-10 1.3309412095175184e-10  1.9999999999533037e+02 -2.0154278752443773e-10 4.1047843681995634e-11  1.9999999999540827e+02 -5.0217755552961074e-11 9.7041117218555542e-11  1.9999999999470182e+02 1.2563663095958627e-10 -4.3852506077126671e-11  1.9999999999902036e+02 -5.4812302802625491e-11 -3.5272948305141345e-11  1.9999999999915107e+02 -2.1177803572962254e-10 -1.2486827583526622e-10  1.9999999999811720e+02 -2.3017388919524891e-10 -2.5219104453988165e-10  1.9999999999814753e+02 -2.6082347641540694e-11 3.5484632380847132e-11  1.9999999999819639e+02 1.9668260577772132e-10 -2.4233322111522754e-11  1.9999999999818726e+02 -5.0393332836401845e-11 -1.2873593928114297e-11  1.9999999999817510e+02 1.7932907440147471e-10 1.3315321058203685e-10  2.0000000000004499e+02 -3.4368173673169753e-11 1.2323608519963897e-10  2.0000000000058085e+02 1.5278915959637567e-10 -5.9933026710933983e-11  1.9999999999904870e+02 -9.3192995000423756e-11 -1.0291620135216859e-10  1.9999999999901596e+02 -3.7424645756501775e-11 4.1427484669510890e-11  1.9999999999963819e+02 -6.5454952389650698e-11 -3.7755146274866957e-11  2.0000000000006409e+02 -3.4517284293254148e-11 1.1129756134827347e-12  2.0000000000058310e+02 1.7710284777593875e-10 1.1386744253842409e-10  1.9999999999905646e+02 -6.0484162441212781e-11 -3.0310358004616588e-12  1.9999999999720319e+02 -6.5545414237041967e-11 -7.7887858430724545e-11  1.9999999999708757e+02 -2.3074522113095826e-10 -9.2343171064048507e-11  1.9999999999623881e+02 -8.2817549404648114e-11 -7.1562977488833591e-11  1.9999999999629586e+02 -2.2181945706219319e-11 5.7915164266653069e-11  1.9999999999650666e+02 1.7695469972808683e-10 -2.0393529212203100e-11  1.9999999999639300e+02 3.1210068548457228e-11 -2.0159916018955595e-11  1.9999999999648122e+02 1.3178020714848464e-10 9.7862321158559616e-11  1.9999999999633465e+02 1.0308777450321813e-11 -4.5567418245956281e-11  1.9999999999717255e+02 -8.0664891522315490e-11 -9.5652845384775904e-11  1.9999999999727672e+02 -2.7012531280365921e-11 5.0484893327100279e-11  1.9999999999726543e+02 2.4169067169420025e-11 -3.3167773660970120e-11  1.9999999999537164e+02 -2.3163346647772637e-11 -1.2151867597858292e-10  1.9999999999524240e+02 -1.9928266252227200e-10 -1.8959606114896848e-11  1.9999999999442534e+02 -1.4770229604417165e-11 1.1893560769445091e-10  1.9999999999466709e+02 1.8810012007233081e-10 -1.2793324028930530e-11  1.9999999999534603e+02 -1.9439794244731452e-10 -8.5730195331354621e-11  1.9999999999544124e+02 -4.1787411855586496e-11 8.3942757734085356e-11  1.9999999999898839e+02 -4.6491242818902052e-11 -3.7228447142952460e-11  1.9999999999914522e+02 -1.7543193149409247e-10 -1.2144721799499368e-10  1.9999999999813792e+02 -1.9625582176682800e-10 -1.8869723841383084e-10  1.9999999999819346e+02 -5.1958979647631896e-11 -3.4830422403559936e-11  1.9999999999820767e+02 2.0570538266413844e-10 -2.5312300046162220e-11  1.9999999999817260e+02 4.3992254317012747e-12 7.9864167480766168e-12  1.9999999999819454e+02 1.8601971003333181e-10 1.2501131316734246e-10  2.0000000000002530e+02 1.2236353280171459e-11 1.2373270051926343e-10  2.0000000000058887e+02 1.4238743982797684e-10 -6.6285928406907191e-11  1.9999999999903241e+02 -1.0924406081006576e-10 -1.2955608373862024e-10  1.9999999999897949e+02 -1.5589349204223161e-11 6.8100180590689343e-11  1.9999999999961523e+02 -1.7900253909862990e-11 1.0273906954319778e-11  2.0000000000002461e+02 -5.5459067164580197e-11 -1.1185028062540791e-10  2.0000000000056275e+02 1.8812287064286061e-10 1.0319337407592730e-10  2.0000000000006716e+02 -6.4728191585800613e-11 -5.4066893676170034e-12  1.9999999999723664e+02 -3.2074265370904141e-11 -8.6433366975130780e-11  1.9999999999710286e+02 -1.5834684655579736e-10 -4.9807225847874805e-11  1.9999999999616369e+02 -1.0539524036255831e-10 -9.5808320267480680e-11  1.9999999999627616e+02 -2.1825630367919501e-11 8.2958618795680509e-11  1.9999999999643018e+02 1.1281042994078671e-10 -3.0270506807539497e-11  1.9999999999630288e+02 -1.7776939887083394e-11 2.5447892571110418e-11  1.9999999999645206e+02 1.2265595888156797e-10 9.8906010115230261e-11  1.9999999999633312e+02 3.4406071053335612e-11 -2.4410089209400157e-11  1.9999999999717113e+02 -1.5063661590571249e-10 -9.9769117192834706e-11  1.9999999999725355e+02 -7.1377037040737629e-11 5.1313686270804816e-11  1.9999999999536226e+02 -1.0024801290898466e-10 -8.7957908816467002e-11  1.9999999999524579e+02 -2.1902379926086512e-10 -6.7289320903118135e-11  1.9999999999441783e+02 -1.1381734137105346e-10 -1.1087271613982037e-10  1.9999999999445814e+02 -8.3799253831247885e-11 7.8579987327779740e-11  1.9999999999470006e+02 1.6505632195667490e-10 -1.1481673257084560e-12  1.9999999999533705e+02 -1.0683623486754726e-10 -5.9109267901296500e-11  1.9999999999544349e+02 -6.9465314789111554e-11 7.9243897196865221e-11  1.9999999999903736e+02 -8.2706472853699012e-11 -6.6513263686947253e-12  1.9999999999913805e+02 -2.3312994717286457e-10 -7.3369915540712868e-11  1.9999999999807341e+02 -2.3823932272114139e-10 -2.1023935821150284e-10  1.9999999999818715e+02 -1.6220612304818060e-11 -2.6983808309128909e-11  1.9999999999820861e+02 2.1293374788819338e-10 -4.1304112267039012e-11  2.0000000000003354e+02 2.8817197837053512e-12 9.3025848099120298e-11  2.0000000000060325e+02 1.5702308430223764e-10 -7.4993944025577503e-11  1.9999999999902664e+02 -1.9693275986471483e-11 2.9062783509385041e-11  1.9999999999966190e+02 -4.6074975532880224e-11 4.2190722571147096e-11  1.9999999999719097e+02 -5.1597787146286010e-11 -9.4278591452204962e-11  1.9999999999703584e+02 -1.9346186361119160e-10 -4.0491020843628435e-11  1.9999999999614911e+02 -9.8380599734990045e-11 -6.5534265553367873e-11  1.9999999999627533e+02 3.3271912593258773e-11 3.3722663403515783e-11  1.9999999999647261e+02 1.6970597456989866e-10 -9.4724214652632071e-12  1.9999999999724821e+02 -4.1580366844778368e-11 4.4477228347016129e-11  1.9999999999540148e+02 -4.2058681992250581e-11 -7.5005549921658317e-11  1.9999999999526841e+02 -1.4226688975783452e-10 -5.0790620077515427e-11  1.9999999999443719e+02 -1.1480901173274050e-10 -8.8913205757487313e-11  1.9999999999447192e+02 -2.0493521910372224e-11 9.8914303539788296e-11  1.9999999999464995e+02 1.3793835601783841e-10 7.8374694899027390e-12  1.9999999999540699e+02 -4.5390793218423939e-11 1.1037994621381517e-10  1.9999999999719574e+02 -4.5384489646354713e-11 -1.0687792003610259e-10  1.9999999999703454e+02 -2.2062610773009822e-10 -7.7581798939559880e-11  1.9999999999626323e+02 -4.5219291715083181e-11 8.1141781386062903e-11  1.9999999999645047e+02 1.3997893746029710e-10 -2.3156647009229724e-11  1.9999999999818226e+02 -6.3437780203454766e-11 -4.2391640117917516e-11  1.9999999999824021e+02 1.6523975978804162e-10 4.6183137322314456e-12  1.9999999999720677e+02 -5.6699853665523589e-11 4.3138756624695456e-11  1.9999999999535402e+02 -9.2407868338131005e-11 -8.5221543863151424e-11  1.9999999999521228e+02 -2.6597508259671945e-10 -1.8945574662957587e-11  1.9999999999439208e+02 -1.2968241053669403e-10 -1.4472624536395792e-10  1.9999999999449292e+02 -1.5693949523771534e-11 1.2496197550598732e-10  1.9999999999470165e+02 1.5272518816456946e-10 -9.3465502874248006e-12  1.9999999999537675e+02 -2.3978879527344585e-11 1.2067786675701110e-10  1.9999999998738946e+02 6.5591185807836532e-10 1.8552246054238550e-11  1.9999999998653112e+02 -6.1721022632492504e-11 -9.9443628733623392e-11  1.9999999998658916e+02 -2.3348756093886610e-10 -1.0708298789408145e-10  1.9999999998655761e+02 -1.4305688784644649e-10 -4.6084156216465100e-11  1.9999999998580046e+02 7.1149195098994597e-10 -8.6064491184590914e-12  1.9999999998550629e+02 -8.6589968288925169e-11 -1.1910374265751533e-10  1.9999999998561765e+02 -6.9675405251821620e-11 1.9766054682216768e-11  1.9999999998577456e+02 1.4011838872427943e-10 -2.2402037548916190e-11  1.9999999998576112e+02 -1.1859972403942558e-10 6.5957194861815353e-12  1.9999999998574128e+02 1.3986931774173649e-10 1.1147197282507829e-10  1.9999999998658598e+02 -2.5281147102975742e-10 1.7053704216597080e-11  1.9999999998564473e+02 4.4799673761060417e-11 -3.2079606576986129e-11  1.9999999998581134e+02 5.5927610732283243e-10 1.5319759681657518e-10  1.9999999998760239e+02 6.7542268218712166e-12 -2.6355466632362091e-11  1.9999999998741117e+02 6.4048445906610209e-10 1.1861007401487521e-10  1.9999999998657250e+02 4.0836614883769513e-11 3.2347282795700546e-11  1.9999999998759588e+02 -5.8090215792401879e-11 7.0489693023590601e-11  1.9999999998747930e+02 9.7374279066671188e-11 5.7973762080568046e-11  1.9999999998666553e+02 -1.3185704581104332e-10 -1.1462042169285109e-10  1.9999999998656821e+02 -3.7732605858010752e-11 4.3663348552151339e-11  1.9999999998756414e+02 -1.8932924877031674e-10 -1.1902832596738099e-10  1.9999999998753523e+02 -7.2577494397465297e-11 -1.1976784072795077e-10  1.9999999998740347e+02 1.5849826282993085e-10 7.4236081950609647e-11  1.9999999998750533e+02 -7.1700005212366736e-11 -4.2982798141761221e-11  1.9999999998665299e+02 -2.9683852554875128e-11 -4.2189416565504479e-11  1.9999999998480595e+02 -1.4967275165540090e-10 -3.7784877346782148e-11  1.9999999998467115e+02 -2.7552238288645750e-10 -1.1574442372432540e-10  1.9999999998485515e+02 -5.8010239011851299e-11 -1.9380196201751308e-11  1.9999999998413534e+02 6.4668075438324993e-10 -2.5462548293174977e-11  1.9999999998381199e+02 -1.3686804583045174e-10 -6.0746799884394218e-11  1.9999999998398823e+02 -7.9219722961726134e-11 6.1436054266837210e-12  1.9999999998414526e+02 1.6295349439364719e-10 -2.1451536967302671e-11  1.9999999998402689e+02 4.8107863109848496e-11 -4.9974786517649236e-13  1.9999999998413637e+02 1.0730219104740797e-10 1.4990971872037860e-10  1.9999999998486138e+02 -3.4378509076421527e-10 9.0541526704949588e-11  1.9999999998387284e+02 1.4641707185645900e-10 5.1201593757498521e-11  1.9999999998409265e+02 5.6038618695810156e-10 1.0387898173135999e-10  1.9999999998403945e+02 -5.2534262562114899e-11 8.4633062226488417e-11  1.9999999998476540e+02 -1.7854738179911608e-10 -8.9155251753565426e-11  1.9999999998485097e+02 -7.6478876679420824e-11 6.4810811990507557e-11  1.9999999998317500e+02 -1.3728172485558509e-10 -3.3219196231804052e-11  1.9999999998297255e+02 -4.6312839950434540e-10 -7.8018289868542348e-12  1.9999999998308309e+02 -7.1241399223216424e-11 -3.2041588564642280e-11  1.9999999998309943e+02 -2.3973494280850410e-11 -5.0554401857954481e-11  1.9999999998661082e+02 -3.3429915654577349e-11 2.1874810218546758e-11  1.9999999998573963e+02 -1.7739419314840326e-10 -2.9323808712987708e-12  1.9999999998758173e+02 -9.4748253830361370e-11 -2.3828913647293014e-11  1.9999999998481775e+02 -1.7101126875056048e-11 -8.5541359316178026e-11  1.9999999998487377e+02 -1.7675233015139814e-10 -3.4323134899643738e-11  1.9999999998395310e+02 -1.3042081222873181e-11 4.4720415536096759e-11  1.9999999998410200e+02 1.3722252815777302e-10 4.9079142275123828e-12  1.9999999999539205e+02 -5.4123545215553576e-12 2.8557064615988052e-11  1.9999999999469475e+02 7.3228288548880326e-10 -6.3856516737139242e-11  1.9999999999456367e+02 9.8411626193274958e-12 -9.3581834919674870e-12  1.9999999999450287e+02 -9.4988275153715018e-11 -1.3181423025505465e-11  1.9999999999455281e+02 3.0081642979542569e-11 -3.8862264193744877e-12  1.9999999999352457e+02 -1.1816850412922185e-10 -9.9795795106447730e-11  1.9999999999335955e+02 -2.6728852314803139e-10 -1.0304315547871599e-10  1.9999999999358351e+02 -9.9696644237918254e-11 -3.5831770522795506e-11  1.9999999999288687e+02 7.1603355505683059e-10 9.4778441326420497e-12  1.9999999999250608e+02 -1.1548081741299042e-10 -1.4504460457411263e-10  1.9999999999270545e+02 -1.1704076617958896e-10 3.1086724216707797e-11  1.9999999999287002e+02 1.7214390881071896e-10 -3.8913075281043075e-11  1.9999999999272734e+02 -4.1899861801395573e-12 -5.0418408176264961e-11  1.9999999999286990e+02 1.0066985883538828e-10 1.1459769299864573e-10  1.9999999999355094e+02 -3.7807527816348928e-10 9.3134048252378013e-12  1.9999999999270588e+02 7.7137476072858904e-11 -8.5103606185776891e-11  1.9999999999285342e+02 5.7333103861632598e-10 7.7775450656649483e-11  1.9999999999278714e+02 -8.1497405451057414e-12 2.9276894399769907e-11  1.9999999999347750e+02 -1.1752507908166208e-10 -1.2365301249405574e-10  1.9999999999361319e+02 -9.9005021442781139e-11 7.5440697426535872e-11  1.9999999999175162e+02 -1.4902737894514008e-10 -9.6405279011024044e-11  1.9999999999159508e+02 -2.9026276708277528e-10 -8.3529922961235882e-11  1.9999999999177962e+02 -7.4068377918277402e-11 -9.3801013859253987e-12  1.9999999999103127e+02 6.9380953593928447e-10 -1.1450663078590981e-11  1.9999999999075661e+02 -6.9110497622815978e-11 -6.6553329318064964e-11  1.9999999999087350e+02 2.7243095081720260e-14 5.1425196558350904e-11  1.9999999999108311e+02 1.4951961834895546e-10 -2.4036563962298057e-11  1.9999999999174815e+02 -3.7292121032362718e-10 2.3862189486207645e-11  1.9999999999090915e+02 3.9505687496762495e-11 2.7531272422958959e-11  1.9999999999106797e+02 5.5366254057181432e-10 1.2132218059115183e-10  1.9999999999187071e+02 7.9057179031658221e-11 -7.6734320234772769e-11  1.9999999999175574e+02 -2.0578619173863137e-10 -1.0146407469143870e-10  1.9999999999179173e+02 -8.8443855476669487e-11 3.1589754631072553e-11  1.9999999999000352e+02 -1.3558081660579230e-10 -5.2441761065192001e-11  1.9999999998990936e+02 -2.3679034636092687e-10 -4.4282490761674206e-11  1.9999999999006869e+02 -6.0212590521148382e-11 3.8191305821830793e-11  1.9999999998927402e+02 7.1072818216266893e-10 2.5779555842165760e-11  1.9999999998898232e+02 -8.7881716331304918e-11 -1.0771065414004112e-10  1.9999999998926651e+02 -7.4633985182603259e-11 6.6424302517184936e-11  1.9999999998927919e+02 1.6339818972766940e-10 1.2235163051053157e-11  1.9999999999001216e+02 -3.4584191300099694e-10 7.4343762870015397e-11  1.9999999998912489e+02 6.0229436070165821e-11 1.6175331953024683e-12  1.9999999998931747e+02 5.6434504129037203e-10 1.2311389926123089e-10  1.9999999999004956e+02 7.5013194205642842e-11 -6.8477719739079558e-11  1.9999999999004396e+02 -6.6885735271528500e-11 5.9576451595727893e-11  1.9999999998833837e+02 -9.5472765997281007e-11 -8.2795923999590804e-11  1.9999999998854898e+02 -2.8207540257887996e-10 3.2872815402854363e-11  1.9999999998837276e+02 -4.5689422095536228e-11 5.7108938293644514e-11  1.9999999998831274e+02 -4.6211487999055220e-10 7.9890986712662648e-11  1.9999999998832467e+02 -6.6000479479583128e-11 3.8983031542857849e-11  1.9999999998307666e+02 -4.5902973348640487e-11 -5.4115054247094783e-11  1.9999999998311444e+02 -3.3679752373127725e-10 5.4635307923647181e-11  1.9999999999351098e+02 -2.5135437865176229e-11 -6.6876113645867228e-11  1.9999999999347040e+02 -1.8703299234597826e-10 -3.7840232554868302e-11  1.9999999999253518e+02 -1.2636886420589202e-10 -1.2847880667836183e-10  1.9999999999263812e+02 -2.5762357168231066e-11 3.2864264850461717e-11  1.9999999999281513e+02 1.2216544656669774e-10 -3.0346395028092182e-11  1.9999999999355811e+02 3.6307618320376741e-12 -9.1633071749742878e-11  1.9999999999360148e+02 -4.0390944174012577e-13 8.8583909685935898e-11  1.9999999999176140e+02 -5.5805976994989841e-11 -1.0472697398937032e-10  1.9999999999161381e+02 -2.0879181805669960e-10 -1.4621468660437846e-10  1.9999999999088078e+02 -4.8664588949967944e-12 7.3586213127390331e-11  1.9999999999106831e+02 1.5360721171863546e-10 -3.7092422205006072e-11  1.9999999999181870e+02 -8.5220520274840149e-11 3.4397966174985174e-11  1.9999999999359733e+02 -4.0358252600656564e-11 -1.8384308200438720e-11  1.9999999999356606e+02 -2.4156427915734897e-10 -4.9370644564967934e-12  1.9999999999279348e+02 -1.2474876537765825e-11 -4.7058169989340886e-11  1.9999999999278890e+02 1.2776251331698197e-10 -2.4753932315048387e-11  1.9999999999355430e+02 -6.4854180554611828e-11 1.0890100776588445e-10  1.9999999999358320e+02 -3.8366331658175303e-11 3.7893504208977454e-11  1.9999999999355441e+02 -1.8141275032524552e-10 2.1169645813137950e-11  1.9999999999263602e+02 -2.1749459269471687e-10 -1.9000857532483451e-10  1.9999999999279501e+02 -2.5609337379157493e-11 -7.7539898902638581e-12  1.9999999999274613e+02 1.6173130330222021e-10 5.1051813488655350e-12  1.9999999999359451e+02 -7.7533017004736778e-11 -9.5043048565034867e-11  1.9999999999363047e+02 -6.2857387593766090e-11 1.0445262709474150e-10  1.9999999999178772e+02 -5.3690352003609351e-11 -4.9238633761981146e-11  1.9999999999166639e+02 -1.9613335140481253e-10 -7.3409062272163046e-11  1.9999999999182512e+02 -1.1929608070669553e-10 7.2348289567961042e-11  1.9999999999111427e+02 1.2926768710758016e-10 -2.8018839747828920e-11  1.9999999999181898e+02 -7.3307083848119365e-11 7.5499920653893813e-11  1.9999999999111446e+02 1.2306199859427348e-10 -1.0104865612741003e-12  1.9999999999362154e+02 -5.1476451861049218e-11 -6.7041081056331580e-12  1.9999999999358212e+02 -1.7549059275064569e-10 -1.4226568384641565e-11  1.9999999999275425e+02 -1.6437651655473930e-12 -4.8575008460118536e-12  1.9999999999276969e+02 1.7748396237089803e-10 1.3186209610620949e-11  1.9999999999360