<?xml version="1.0"?>
<VTKFile type="UnstructuredGrid"  version="0.1"  >
<UnstructuredGrid>
<Piece  NumberOfPoints="3890" NumberOfCells="19071">
<Points>
<DataArray  type="Float64"  NumberOfComponents="3"  format="ascii">25 17.5 25  25 17.5 26.25  25 16.25 26.25  23.75 16.25 26.25  25 17.5 27.5  23.75 17.5 26.25  25 18.75 26.25  25 18.75 25  23.75 18.75 26.25  23.75 18.75 25  25 20 25  25 20 26.25  25 20 27.5  25 18.75 27.5  22.5 15 7.5  22.5 16.25 8.75  22.5 16.25 7.5  21.25 16.25 8.75  22.5 17.5 7.5  22.5 17.5 8.75  22.5 17.5 10  22.5 15 8.75  22.5 15 10  22.5 16.25 10  21.25 16.25 10  22.5 18.75 8.75  22.5 18.75 7.5  21.25 18.75 8.75  22.5 20 7.5  22.5 20 8.75  22.5 20 10  22.5 18.75 10  21.25 18.75 10  22.5 16.25 11.25  21.25 16.25 11.25  22.5 17.5 11.25  22.5 17.5 12.5  21.25 17.5 11.25  22.5 18.75 11.25  21.25 18.75 11.25  22.5 20 11.25  22.5 20 12.5  22.5 18.75 12.5  21.25 18.75 12.5  22.5 21.25 11.25  22.5 21.25 10  21.25 21.25 11.25  22.5 22.5 10  22.5 22.5 11.25  22.5 22.5 12.5  22.5 21.25 12.5  23.75 17.5 13.75  22.5 17.5 13.75  23.75 16.25 13.75  22.5 17.5 15  23.75 17.5 15  25 17.5 15  22.5 18.75 13.75  21.25 18.75 13.75  22.5 20 13.75  22.5 20 15  22.5 18.75 15  21.25 18.75 15  23.75 18.75 13.75  23.75 18.75 15  25 18.75 15  25 20 15  23.75 20 15  23.75 20 13.75  22.5 21.25 13.75  21.25 21.25 13.75  22.5 22.5 13.75  22.5 22.5 15  22.5 21.25 15  23.75 21.25 13.75  23.75 21.25 15  25 21.25 15  25 22.5 15  23.75 22.5 15  23.75 22.5 13.75  23.75 23.75 13.75  23.75 23.75 15  25 23.75 15  25 25 15  22.5 18.75 16.25  21.25 18.75 16.25  22.5 20 16.25  22.5 20 17.5  22.5 17.5 16.25  22.5 17.5 17.5  22.5 18.75 17.5  23.75 18.75 16.25  25 18.75 16.25  25 20 16.25  25 20 17.5  23.75 17.5 16.25  25 17.5 16.25  25 17.5 17.5  25 18.75 17.5  23.75 18.75 17.5  23.75 17.5 17.5  23.75 20 16.25  23.75 20 17.5  23.75 21.25 16.25  25 21.25 16.25  25 22.5 16.25  25 22.5 17.5  25 21.25 17.5  23.75 21.25 17.5  23.75 22.5 16.25  22.5 22.5 17.5  23.75 22.5 17.5  22.5 22.5 16.25  23.75 23.75 16.25  25 23.75 16.25  25 25 16.25  25 25 17.5  25 23.75 17.5  23.75 23.75 17.5  23.75 18.75 18.75  25 18.75 18.75  25 20 18.75  25 20 20  25 17.5 18.75  25 17.5 20  25 18.75 20  23.75 18.75 20  23.75 20 18.75  23.75 21.25 18.75  25 21.25 18.75  25 22.5 18.75  25 22.5 20  25 21.25 20  23.75 22.5 18.75  23.75 23.75 18.75  25 23.75 18.75  25 25 18.75  25 25 20  25 23.75 20  25 18.75 21.25  23.75 18.75 21.25  25 20 21.25  25 20 22.5  25 17.5 21.25  25 17.5 22.5  25 18.75 22.5  22.5 17.5 22.5  23.75 18.75 22.5  23.75 17.5 22.5  23.75 17.5 23.75  23.75 16.25 23.75  25 17.5 23.75  23.75 18.75 23.75  25 18.75 23.75  25 20 23.75  22.5 23.75 15  22.5 25 15  23.75 25 15  22.5 25 12.5  23.75 25 13.75  22.5 25 13.75  23.75 26.25 13.75  23.75 26.25 15  25 26.25 15  25 27.5 15  23.75 25 16.25  23.75 26.25 16.25  25 26.25 16.25  25 27.5 16.25  25 27.5 17.5  25 26.25 17.5  23.75 27.5 16.25  25 28.75 16.25  25 28.75 15  23.75 28.75 16.25  25 30 15  25 28.75 17.5  26.25 21.25 21.25  25 21.25 21.25  26.25 21.25 22.5  25 21.25 22.5  25 22.5 22.5  26.25 22.5 22.5  27.5 22.5 22.5  26.25 21.25 23.75  26.25 22.5 23.75  27.5 22.5 23.75  27.5 22.5 25  25 21.25 23.75  26.25 21.25 25  25 21.25 25  25 22.5 25  26.25 22.5 25  25 22.5 23.75  26.25 23.75 23.75  27.5 23.75 23.75  27.5 23.75 25  27.5 25 25  26.25 23.75 25  25 25 25  26.25 25 25  28.75 23.75 23.75  28.75 22.5 23.75  28.75 23.75 25  28.75 22.5 25  30 22.5 25  30 23.75 25  30 25 25  28.75 25 25  26.25 21.25 26.25  26.25 22.5 26.25  27.5 22.5 26.25  27.5 22.5 27.5  25 21.25 26.25  26.25 21.25 27.5  25 21.25 27.5  25 22.5 27.5  26.25 22.5 27.5  25 22.5 26.25  26.25 23.75 26.25  27.5 23.75 26.25  27.5 25 26.25  27.5 25 27.5  27.5 23.75 27.5  26.25 23.75 27.5  26.25 25 26.25  25 25 27.5  26.25 25 27.5  28.75 23.75 26.25  30 23.75 26.25  30 25 26.25  30 25 27.5  28.75 22.5 26.25  30 22.5 26.25  30 22.5 27.5  30 23.75 27.5  28.75 23.75 27.5  28.75 22.5 27.5  28.75 25 26.25  28.75 25 27.5  31.25 23.75 26.25  31.25 23.75 25  31.25 22.5 25  32.5 22.5 25  32.5 23.75 26.25  32.5 23.75 25  32.5 25 25  31.25 22.5 26.25  32.5 22.5 26.25  32.5 22.5 27.5  32.5 23.75 27.5  31.25 23.75 27.5  31.25 22.5 27.5  31.25 25 25  33.75 23.75 26.25  33.75 22.5 26.25  33.75 23.75 27.5  33.75 22.5 27.5  35 22.5 27.5  26.25 26.25 26.25  26.25 26.25 25  26.25 21.25 28.75  26.25 20 27.5  27.5 20 27.5  27.5 21.25 28.75  27.5 21.25 27.5  27.5 22.5 28.75  26.25 22.5 28.75  28.75 21.25 28.75  28.75 22.5 28.75  26.25 23.75 28.75  27.5 23.75 28.75  28.75 23.75 28.75  30 23.75 28.75  31.25 23.75 28.75  33.75 23.75 28.75  30 15 15  31.25 15 15  31.25 13.75 15  31.25 13.75 13.75  32.5 15 15  31.25 15 16.25  31.25 13.75 16.25  32.5 15 16.25  32.5 15 17.5  30 15 16.25  30 15 17.5  31.25 15 17.5  35 15 15  36.25 15 16.25  35 15 16.25  36.25 13.75 16.25  35 15 17.5  36.25 15 17.5  37.5 15 17.5  30 16.25 16.25  28.75 16.25 16.25  30 16.25 17.5  30 17.5 17.5  28.75 16.25 17.5  27.5 17.5 17.5  28.75 17.5 17.5  31.25 16.25 16.25  32.5 16.25 16.25  32.5 16.25 17.5  32.5 17.5 17.5  31.25 16.25 17.5  31.25 17.5 17.5  35 16.25 16.25  33.75 16.25 16.25  35 16.25 17.5  35 17.5 17.5  33.75 16.25 17.5  33.75 15 17.5  33.75 17.5 17.5  36.25 16.25 16.25  36.25 16.25 17.5  37.5 16.25 17.5  37.5 17.5 17.5  36.25 17.5 17.5  26.25 17.5 18.75  26.25 17.5 17.5  26.25 16.25 18.75  27.5 17.5 18.75  27.5 17.5 20  26.25 17.5 20  26.25 16.25 20  30 16.25 18.75  28.75 16.25 18.75  30 17.5 18.75  30 17.5 20  30 16.25 20  28.75 16.25 20  28.75 17.5 18.75  28.75 17.5 20  31.25 16.25 18.75  32.5 16.25 18.75  32.5 17.5 18.75  32.5 17.5 20  32.5 16.25 20  31.25 16.25 20  31.25 17.5 18.75  31.25 17.5 20  33.75 16.25 18.75  35 16.25 18.75  35 17.5 18.75  35 17.5 20  35 16.25 20  33.75 16.25 20  33.75 17.5 18.75  33.75 17.5 20  36.25 16.25 18.75  37.5 16.25 18.75  37.5 17.5 18.75  37.5 17.5 20  37.5 15 18.75  37.5 15 20  37.5 16.25 20  36.25 16.25 20  36.25 17.5 18.75  36.25 17.5 20  26.25 18.75 18.75  27.5 18.75 18.75  27.5 18.75 20  27.5 20 20  26.25 18.75 20  26.25 20 20  28.75 18.75 18.75  30 18.75 18.75  30 18.75 20  30 20 20  28.75 18.75 20  28.75 20 20  31.25 18.75 18.75  32.5 18.75 18.75  32.5 18.75 20  32.5 20 20  31.25 18.75 20  31.25 20 20  33.75 18.75 18.75  35 18.75 18.75  35 18.75 20  35 20 20  33.75 18.75 20  33.75 20 20  36.25 18.75 18.75  37.5 18.75 18.75  37.5 18.75 20  37.5 20 20  36.25 18.75 20  36.25 20 20  27.5 17.5 21.25  27.5 16.25 21.25  26.25 16.25 21.25  27.5 17.5 22.5  27.5 15 22.5  27.5 16.25 22.5  26.25 16.25 22.5  26.25 17.5 21.25  26.25 17.5 22.5  30 17.5 21.25  30 16.25 21.25  28.75 16.25 21.25  30 17.5 22.5  30 16.25 22.5  28.75 16.25 22.5  28.75 17.5 21.25  28.75 17.5 22.5  32.5 17.5 21.25  32.5 16.25 21.25  31.25 16.25 21.25  32.5 17.5 22.5  32.5 16.25 22.5  31.25 16.25 22.5  31.25 17.5 21.25  31.25 17.5 22.5  35 17.5 21.25  35 16.25 21.25  33.75 16.25 21.25  35 17.5 22.5  35 16.25 22.5  33.75 16.25 22.5  33.75 17.5 21.25  33.75 17.5 22.5  37.5 16.25 21.25  36.25 16.25 21.25  37.5 17.5 21.25  37.5 17.5 22.5  37.5 15 21.25  37.5 15 22.5  37.5 16.25 22.5  36.25 16.25 22.5  36.25 17.5 21.25  36.25 17.5 22.5  26.25 18.75 21.25  27.5 18.75 21.25  27.5 20 21.25  27.5 20 22.5  27.5 18.75 22.5  26.25 18.75 22.5  26.25 20 21.25  26.25 20 22.5  28.75 18.75 21.25  30 18.75 21.25  30 20 21.25  30 20 22.5  30 18.75 22.5  28.75 18.75 22.5  28.75 20 21.25  28.75 20 22.5  31.25 18.75 21.25  32.5 18.75 21.25  32.5 20 21.25  32.5 20 22.5  32.5 18.75 22.5  31.25 18.75 22.5  31.25 20 21.25  31.25 20 22.5  33.75 18.75 21.25  35 18.75 21.25  35 20 21.25  35 20 22.5  35 18.75 22.5  33.75 18.75 22.5  33.75 20 21.25  33.75 20 22.5  36.25 18.75 21.25  37.5 18.75 21.25  37.5 20 21.25  37.5 20 22.5  37.5 18.75 22.5  36.25 18.75 22.5  36.25 20 21.25  36.25 20 22.5  27.5 21.25 21.25  27.5 21.25 22.5  28.75 21.25 21.25  30 21.25 21.25  30 21.25 22.5  30 22.5 22.5  28.75 21.25 22.5  28.75 22.5 22.5  31.25 21.25 21.25  32.5 21.25 21.25  32.5 21.25 22.5  32.5 22.5 22.5  31.25 21.25 22.5  31.25 22.5 22.5  33.75 21.25 21.25  35 21.25 21.25  35 21.25 22.5  35 22.5 22.5  33.75 21.25 22.5  33.75 22.5 22.5  36.25 21.25 21.25  37.5 21.25 21.25  37.5 21.25 22.5  37.5 22.5 22.5  36.25 21.25 22.5  36.25 22.5 22.5  27.5 16.25 23.75  26.25 16.25 23.75  27.5 17.5 23.75  27.5 17.5 25  27.5 15 25  27.5 16.25 25  26.25 16.25 25  26.25 17.5 23.75  26.25 17.5 25  30 17.5 23.75  30 16.25 23.75  28.75 16.25 23.75  30 17.5 25  30 16.25 25  28.75 16.25 25  28.75 17.5 23.75  28.75 17.5 25  32.5 17.5 23.75  32.5 16.25 23.75  31.25 16.25 23.75  32.5 17.5 25  32.5 15 25  32.5 16.25 25  31.25 17.5 23.75  31.25 17.5 25  35 17.5 23.75  35 16.25 23.75  33.75 16.25 23.75  35 17.5 25  35 16.25 25  33.75 17.5 23.75  33.75 17.5 25  37.5 16.25 23.75  36.25 16.25 23.75  37.5 17.5 23.75  37.5 17.5 25  37.5 15 23.75  37.5 15 25  37.5 16.25 25  36.25 16.25 25  36.25 17.5 23.75  36.25 17.5 25  26.25 18.75 23.75  27.5 18.75 23.75  27.5 20 23.75  27.5 20 25  27.5 18.75 25  26.25 18.75 25  26.25 20 23.75  26.25 20 25  28.75 18.75 23.75  30 18.75 23.75  30 20 23.75  30 20 25  30 18.75 25  28.75 18.75 25  28.75 20 23.75  28.75 20 25  31.25 18.75 23.75  32.5 18.75 23.75  32.5 20 23.75  32.5 20 25  32.5 18.75 25  31.25 18.75 25  31.25 20 23.75  31.25 20 25  33.75 18.75 23.75  35 18.75 23.75  35 20 23.75  35 20 25  35 18.75 25  33.75 18.75 25  33.75 20 23.75  33.75 20 25  36.25 18.75 23.75  37.5 18.75 23.75  37.5 20 23.75  37.5 20 25  37.5 18.75 25  36.25 18.75 25  36.25 20 23.75  36.25 20 25  27.5 21.25 23.75  27.5 21.25 25  28.75 21.25 23.75  30 21.25 23.75  30 22.5 23.75  30 21.25 25  28.75 21.25 25  31.25 21.25 23.75  32.5 21.25 23.75  32.5 22.5 23.75  32.5 21.25 25  31.25 21.25 25  31.25 22.5 23.75  33.75 21.25 23.75  35 21.25 23.75  35 22.5 23.75  35 22.5 25  35 21.25 25  33.75 21.25 25  33.75 22.5 23.75  33.75 22.5 25  36.25 21.25 23.75  37.5 21.25 23.75  37.5 22.5 23.75  37.5 22.5 25  37.5 21.25 25  36.25 21.25 25  36.25 22.5 23.75  36.25 22.5 25  30 23.75 23.75  31.25 23.75 23.75  32.5 23.75 23.75  33.75 23.75 23.75  35 
[...]
<PointData  Vectors="u"> 
<DataArray  type="Float64"  Name="u"  NumberOfComponents="3" format="ascii">1.9999999998250070e+02 6.6412900953202574e-11 1.7653195572601957e-11  1.9999999998235239e+02 -2.7612445849148382e-11 2.9684221777225238e-11  1.9999999998220099e+02 -1.1365374511509244e-10 -7.0526865832246106e-11  1.9999999998315784e+02 -1.2731758815287558e-10 -4.9062484607669369e-11  1.9999999998250752e+02 9.9072936028503327e-11 1.0932100085009112e-10  1.9999999998311216e+02 -2.0972041828672835e-10 -8.7865698740080227e-11  1.9999999998231564e+02 -1.4241006813670244e-10 -7.5893624794640407e-11  1.9999999998233469e+02 -2.9124066515024537e-11 7.6049974534666551e-11  1.9999999998311912e+02 -3.1080847060821403e-11 -5.9624299031746937e-11  1.9999999998300385e+02 -2.0380253893537071e-10 -1.0258357753226104e-10  1.9999999998248560e+02 6.7661885716836113e-11 1.4554097429558693e-11  1.9999999998226627e+02 -3.8595491180755529e-11 -1.4545462152553473e-11  1.9999999998247594e+02 3.5408450179545472e-11 8.7670997775114110e-11  1.9999999998233363e+02 -5.8605149658491321e-11 -7.4341209116683401e-12  1.9999999998416183e+02 1.1170472676899308e-10 1.3575833627115097e-10  1.9999999998395282e+02 -8.3712846932165138e-11 -9.0564752150097995e-11  1.9999999998398064e+02 -2.0248708877491620e-11 1.9732200412141014e-11  1.9999999998482252e+02 -7.0190733228878247e-11 -1.1881132228321390e-10  1.9999999998420481e+02 9.8388084561197793e-11 1.2914742703600312e-10  1.9999999998402893e+02 1.7266536439838013e-11 2.1944331577898264e-11  1.9999999998418332e+02 8.1382541028569727e-11 1.0569776673795206e-10  1.9999999998397968e+02 2.2657287510983424e-11 -4.6163651774946741e-11  1.9999999998418483e+02 1.1213539108753986e-10 1.1812142900524052e-10  1.9999999998396194e+02 -5.0883324327932399e-12 3.8701903337339052e-11  1.9999999998485691e+02 -9.1845461800381326e-11 -1.5222612416036797e-10  1.9999999998397814e+02 -1.1861584316043898e-10 -1.2327907575854091e-10  1.9999999998403598e+02 4.5880887817759031e-12 2.3602538934447571e-11  1.9999999998480047e+02 -1.0121507992840796e-10 -8.1948486462326370e-11  1.9999999998413932e+02 8.8673863430511284e-11 1.1521140675092170e-10  1.9999999998395538e+02 1.7616640939524107e-11 5.7264199562076938e-12  1.9999999998416646e+02 1.1741501065111777e-10 1.1637412163134222e-10  1.9999999998399997e+02 -5.9623170474346975e-12 1.6942140082991392e-11  1.9999999998479208e+02 -1.3030867325350725e-10 -1.6115438376590288e-10  1.9999999998397314e+02 -7.4207746319669763e-11 -1.1967586585597656e-10  1.9999999998481888e+02 -6.2075683843804787e-11 -8.1384739673920598e-11  1.9999999998402134e+02 -2.1897091934279419e-11 -3.2302911381841920e-11  1.9999999998416524e+02 6.8713232501015302e-11 9.7019052773296181e-11  1.9999999998478177e+02 -1.7023271125152834e-10 -1.0736621811603213e-10  1.9999999998394523e+02 -7.5300324288423566e-11 -9.8604542443811801e-11  1.9999999998481431e+02 -1.0865808418112441e-10 -8.7489255956164103e-11  1.9999999998400935e+02 2.3636754228479336e-11 -2.6267369105105443e-11  1.9999999998418340e+02 7.6285186536686972e-11 8.5553720966134270e-11  1.9999999998401830e+02 3.0680210299642057e-11 1.8538457242535438e-13  1.9999999998477048e+02 -1.2146232842020435e-10 -1.5526538813365163e-10  1.9999999998389441e+02 -1.2171035027526184e-10 -1.1182898871965661e-10  1.9999999998394628e+02 -3.1870608859469670e-11 6.2062554296681215e-12  1.9999999998481249e+02 -5.5056648324595055e-11 -9.5054725633211028e-11  1.9999999998412358e+02 1.1335850062020542e-10 1.0688497205623137e-10  1.9999999998391741e+02 7.5162436995906991e-12 -5.1374543365491346e-12  1.9999999998413233e+02 1.4354764854217850e-10 4.5319840684707931e-11  1.9999999998395089e+02 -6.5082903220294245e-12 -2.8767054896527070e-11  1.9999999998309880e+02 -2.6933042726249818e-10 -1.6964603921088847e-11  1.9999999998404417e+02 1.2693641543244675e-11 -5.4432010447267585e-11  1.9999999998312870e+02 -6.8662672288310975e-11 -4.0622106197862797e-11  1.9999999998413662e+02 1.2809950940668849e-10 1.3204057248344683e-10  1.9999999998320274e+02 4.6137014753933372e-11 -1.6260361460748347e-11  1.9999999998248757e+02 1.3592863176703461e-10 7.5964794073002079e-11  1.9999999998392553e+02 -1.0502496326373684e-10 -9.2422104552186385e-11  1.9999999998478432e+02 -9.1227273083369182e-11 -6.0106884235859576e-11  1.9999999998403004e+02 -2.3796091968375635e-11 -1.3540454485047894e-11  1.9999999998416081e+02 7.9030950821584157e-11 9.5629437362172528e-11  1.9999999998404857e+02 -2.5159941575732054e-11 -2.5540854447851924e-12  1.9999999998477099e+02 -1.1372027740828516e-10 -1.8040073678320581e-10  1.9999999998312379e+02 -6.0981678006947805e-11 -2.2934971081513701e-11  1.9999999998310514e+02 -1.2971243535137632e-10 -1.9917129082441628e-10  1.9999999998229097e+02 -4.3347075220243438e-11 9.1667913992173905e-11  1.9999999998247435e+02 6.6823594374603825e-11 8.0334438891311963e-11  1.9999999998314811e+02 -6.1051909448221417e-13 -3.6397078359627523e-11  1.9999999998310633e+02 -2.9716789777159220e-10 -2.0975711117484996e-11  1.9999999998385212e+02 -1.2564615075243323e-10 -1.2732522514348610e-10  1.9999999998479743e+02 -9.8814005674036430e-11 -9.9990814457978085e-11  1.9999999998397567e+02 -1.9710530772287222e-11 -1.7772608444015050e-11  1.9999999998411573e+02 1.3616406081580591e-10 8.3791858866512070e-11  1.9999999998406327e+02 -7.0501926914089225e-11 2.7933566905305599e-11  1.9999999998315806e+02 -1.0747231063750397e-10 -3.1384021497965456e-11  1.9999999998309170e+02 -1.3844679969050754e-10 -1.9376453228679369e-10  1.9999999998225948e+02 -5.7092351906070870e-11 6.8998492158565330e-11  1.9999999998245002e+02 6.8488129373433738e-11 7.4040702614290523e-11  1.9999999998314345e+02 -1.7594627361919322e-11 -4.1871577929466037e-11  1.9999999998313348e+02 -2.2653671545258042e-10 -4.8600292121122409e-11  1.9999999998316034e+02 -1.2576603956212562e-10 -3.6813456026611749e-11  1.9999999998311424e+02 -1.2536460221996260e-10 -2.6031622580532011e-10  1.9999999998225994e+02 -3.0526272624313304e-12 9.4166336070419063e-11  1.9999999998249780e+02 1.1745055738749751e-10 1.1461430119684449e-10  1.9999999998384553e+02 -1.0091298201669322e-10 -7.7254448699977476e-11  1.9999999998477759e+02 -1.0295877753662834e-10 -5.2507897382623885e-11  1.9999999998402146e+02 -5.4477930679601681e-11 1.9492165301596854e-11  1.9999999998413469e+02 5.5734640767876177e-11 1.3812326601539649e-10  1.9999999998403297e+02 3.3624039474295109e-11 -2.0021198051278037e-11  1.9999999998415100e+02 1.3997419939781303e-10 1.5345585984082914e-10  1.9999999998406193e+02 -1.4660470017823688e-11 3.2094765308993822e-11  1.9999999998310452e+02 -1.1107429049790216e-10 -6.6508753019084099e-11  1.9999999998227443e+02 -1.2434325645884342e-10 -7.6927382646879551e-11  1.9999999998233881e+02 1.6014017861200568e-11 3.8277871715341452e-11  1.9999999998246642e+02 9.9112730062733229e-11 1.0930350458827377e-10  1.9999999998308627e+02 -1.4136782595118223e-10 -7.7062912928235217e-11  1.9999999998234128e+02 4.0414433090627057e-11 -2.1228504343127876e-11  1.9999999998251215e+02 1.2433977448990885e-10 1.3333937296571519e-10  1.9999999998231766e+02 -6.9165389072715909e-11 -1.6883970420645170e-12  1.9999999998307186e+02 -1.0969999547096396e-10 -1.1995213601337536e-10  1.9999999998314834e+02 4.0288191534100059e-11 6.0122140004875082e-11  1.9999999998311844e+02 -1.4783394908340893e-10 -4.3817139110390703e-11  1.9999999998320243e+02 -8.8021922031441040e-12 2.3499563292503368e-11  1.9999999998311171e+02 -1.1652274772037515e-10 -5.2799607326519970e-11  1.9999999998225161e+02 -1.7981446413297111e-10 -5.8039976738586279e-11  1.9999999998231405e+02 3.0503670867150184e-11 4.0462699754761863e-11  1.9999999998248950e+02 1.0388041527160750e-10 1.4974670169388201e-10  1.9999999998231357e+02 -9.1970342053186470e-11 4.1060760813916769e-11  1.9999999998309676e+02 -1.3585495422441834e-10 -1.4472338282973471e-10  1.9999999998307950e+02 -1.9611427562952596e-10 -2.9684582659631111e-11  1.9999999998411226e+02 9.7284845796359279e-11 1.1632064888924272e-10  1.9999999998320462e+02 -2.3415476596053778e-11 3.0195265579008344e-11  1.9999999998399767e+02 -9.7228315923055938e-11 1.3116359553348263e-11  1.9999999998315374e+02 -9.5898532860878392e-11 -4.4890051843010190e-11  1.9999999998220093e+02 -1.0961624962794812e-10 -4.4012887346215138e-11  1.9999999998241591e+02 -4.2701536200400116e-11 1.3139222067545180e-11  1.9999999998245946e+02 1.3031684042585730e-10 1.1220063236530737e-10  1.9999999998230223e+02 -5.0527306425791079e-11 6.4819976046514293e-11  1.9999999998315937e+02 -1.2010572415290374e-10 -1.9796970760280191e-10  1.9999999998308678e+02 -1.1155849656527560e-10 -4.4930691501664251e-11  1.9999999998225667e+02 -1.3586994274250066e-10 -4.8620327252221163e-11  1.9999999998233764e+02 -7.5695317537169027e-12 4.9136952783054853e-11  1.9999999998247154e+02 8.0947078827897593e-11 8.8677175055324478e-11  1.9999999998226946e+02 7.3576524361600925e-13 4.4476342964106113e-11  1.9999999998248248e+02 1.2375967242331447e-10 1.1115233528992398e-10  1.9999999998227312e+02 -1.0582460332290682e-10 2.2056314766729803e-12  1.9999999998313197e+02 -1.2331755021922299e-10 -2.0992460064606006e-10  1.9999999998308320e+02 -1.7590612803980647e-10 -6.4306431966536154e-11  1.9999999998312850e+02 -1.0999516444622240e-10 -4.3636836517680433e-11  1.9999999998218277e+02 -1.4219513041271102e-10 -7.8157055903188072e-11  1.9999999998230390e+02 1.8209516913837901e-11 -1.1977849444330638e-11  1.9999999998250414e+02 1.0226551933218284e-10 8.6379454569233074e-11  1.9999999998226164e+02 -3.1716304805258207e-11 7.5006494755167499e-15  1.9999999998312205e+02 -2.1145084240944780e-10 -8.8177049087337318e-11  1.9999999998316818e+02 -8.9521542518994510e-11 -4.0907787595479542e-11  1.9999999998225576e+02 -1.4899672243848269e-10 -1.0242142263777137e-10  1.9999999998233278e+02 -9.2645274548869605e-11 -3.1029281721632993e-12  1.9999999998245912e+02 9.6544717748084774e-11 1.2484300819425557e-10  1.9999999998227639e+02 -4.2840600992028714e-11 4.3431574844097015e-11  1.9999999998224601e+02 -1.3524781952813542e-10 -9.6405985745589283e-11  1.9999999998311461e+02 -9.5216515567341475e-11 -7.7210759900789647e-11  1.9999999998223370e+02 -1.4086737674920065e-11 -6.2699549376824167e-13  1.9999999998245954e+02 6.7855270716722295e-11 8.0772292913581709e-11  1.9999999998230521e+02 2.3196411016461884e-11 -1.5767867497940192e-11  1.9999999998250036e+02 7.0331940190575459e-11 8.5477074373523476e-11  1.9999999998225442e+02 -2.0238477490891426e-11 2.8266320758027617e-11  1.9999999998412565e+02 7.5721052644275778e-11 1.0571550338992143e-10  1.9999999998313604e+02 -1.2657914043119438e-10 -1.2867222473387438e-10  1.9999999998321553e+02 -1.7951148790571017e-11 3.1258914896844747e-12  1.9999999998310551e+02 -1.2179931428446272e-10 2.8364311568654547e-11  1.9999999998315246e+02 -6.1244403060164596e-11 -1.7356843714974304e-11  1.9999999998220594e+02 -2.5999612773959117e-11 -6.8063132015538052e-13  1.9999999998315343e+02 -2.4291806684271923e-11 5.8689517730112669e-12  1.9999999998228779e+02 -1.2544725598510101e-10 3.8416606133559762e-11  1.9999999998220363e+02 -3.6887335131599305e-11 1.0822850751461062e-11  1.9999999998404039e+02 -4.0347660079036178e-11 3.5138923203375000e-11  1.9999999998410473e+02 5.5188950616209522e-11 9.7708751117768768e-11  1.9999999998314132e+02 4.0964631277480978e-11 3.3265166004553384e-11  1.9999999998414077e+02 8.8739348224342905e-11 4.2169355334649015e-13  1.9999999998309667e+02 -2.3331251417091215e-10 -5.0373570467932346e-11  1.9999999998395504e+02 2.5274796405760018e-12 4.0637091001066309e-11  1.9999999998313567e+02 -7.8787031574940705e-11 -4.1236311300594469e-11  1.9999999998310159e+02 -1.3371422992187483e-10 -1.8297062667665789e-10  1.9999999998229535e+02 7.2050597348864666e-11 1.3338929871915658e-10  1.9999999998249510e+02 9.7832437812033066e-11 9.0038930026567176e-11  1.9999999998322005e+02 -7.5638457487570617e-11 -6.8513980843388778e-11  1.9999999998317452e+02 -1.1012047189023689e-10 -4.1885241687137884e-11  1.9999999998231877e+02 -1.2284243318040089e-10 -8.7006853006150945e-11  1.9999999998233994e+02 -2.8121661342430913e-11 2.5072904572363182e-11  1.9999999998250021e+02 6.6940291113197725e-11 8.8841005643367243e-11  1.9999999998231709e+02 -3.7893309873905507e-11 9.3496366359186417e-12  1.9999999998311367e+02 -1.2621950079124016e-10 -8.9287027540539426e-11  1.9999999998228475e+02 -1.2588472135432660e-10 -1.1490630931361400e-10  1.9999999998232249e+02 -1.3499038577540146e-11 4.6509579444534686e-11  1.9999999998310000e+02 -1.1258811157101187e-10 -8.8381030119054551e-11  1.9999999998250559e+02 3.8683494672355928e-11 8.0408293444264412e-11  1.9999999998227233e+02 -3.4121015663247224e-11 8.1949210795307859e-12  1.9999999998143025e+02 8.9632189611669020e-12 -9.4174389112188888e-12  1.9999999998215563e+02 -1.6837645314214125e-10 -1.0191634283610807e-10  1.9999999998136124e+02 -6.3674304687192328e-11 -2.2908749895630399e-10  1.9999999998224996e+02 -3.1774253011442851e-11 4.6954281494991166e-11  1.9999999998244502e+02 8.5593256880172754e-11 7.3763309318874471e-11  1.9999999998144574e+02 -1.2204211595870945e-10 -1.5811584642027152e-11  1.9999999998075188e+02 8.4355226193432338e-11 4.4182958500694245e-11  1.9999999998141462e+02 -4.9144076845323958e-11 -3.9475744084004625e-11  1.9999999998136855e+02 -1.5444856713901070e-10 -5.0740978903108936e-11  1.9999999998055907e+02 -8.3821250844128702e-12 -3.1329208352996223e-11  1.9999999998074529e+02 3.9248357437365327e-11 1.0908712773799591e-10  1.9999999998221426e+02 -1.3720259793077314e-10 6.5961204125769805e-12  1.9999999998141530e+02 -5.0302387295378149e-11 -1.8220534301433498e-10  1.9999999998229805e+02 -2.2002410271120553e-11 1.3194363971535264e-10  1.9999999998248012e+02 7.0098970616702291e-11 7.4873526325096743e-11  1.9999999998148436e+02 -4.1749022525948946e-11 -7.5042776487184624e-11  1.9999999998219391e+02 -1.8582108350591808e-11 -5.6543708302518524e-11  1.9999999998138722e+02 8.5447688176548069e-12 -5.8710852767349848e-11  1.9999999998042915e+02 -3.3209553270485813e-11 -3.7373256348623174e-11  1.9999999998072116e+02 2.3053612681504954e-11 -1.2120972963635158e-10  1.9999999998069200e+02 1.0202298613621119e-10 2.8795171118239595e-11  1.9999999998151483e+02 -7.3784153062652808e-11 -5.2659711331982338e-11  1.9999999998247370e+02 1.1845240306861746e-10 -6.3454153945557414e-13  1.9999999998153044e+02 -1.2529919277945950e-10 1.0307805536340632e-11  1.9999999997975172e+02 -2.8915746562530856e-11 -2.1011124026944129e-11  1.9999999997968447e+02 3.0777290154336036e-12 -1.1260212358053742e-11  1.9999999997966731e+02 -8.8225904619707937e-11 -3.0915898175680796e-10  1.9999999997980262e+02 5.2025625481636860e-11 -7.2211039729723900e-11  1.9999999997916765e+02 -9.8248761948357695e-12 8.2596829638750513e-11  1.9999999997900662e+02 -1.9528181425945809e-11 -3.4291713104969652e-11  1.9999999997915870e+02 1.0655458795649589e-10 2.2660507199011504e-11  1.9999999997980680e+02 -1.2567802224483528e-10 -1.5881389956053653e-12  1.9999999998150560e+02 6.4776638725017764e-11 -8.4426890035509585e-11  1.9999999998145151e+02 -5.7426767010036755e-11 -9.7031900803808997e-11  1.9999999998070047e+02 -6.6105274298579493e-11 -3.4990525500051967e-11  1.9999999998072036e+02 1.6803335468617089e-12 1.0537845699230321e-10  1.9999999998221392e+02 -1.1241007646120202e-10 -1.4300111290856536e-10  1.9999999998142610e+02 1.9439931428795668e-11 -2.3008212668635352e-10  1.9999999998225584e+02 -5.1260739125800955e-11 5.8771807040733408e-11  1.9999999998248589e+02 1.2494960784768079e-10 1.1144989785284429e-10  1.9999999998148616e+02 -4.9080488687673931e-11 -1.0447081773485087e-10  1.9999999998228097e+02 2.7761566931313949e-11 -7.4682923123334414e-12  1.9999999998148317e+02 -6.4743480242861113e-11 -5.0418148103566253e-11  1.9999999998058578e+02 -1.7789734551089824e-10 -2.6945740045565825e-10  1.9999999998069200e+02 -9.9171484103807440e-11 -8.5344766835984242e-11  1.9999999998070237e+02 1.0453462269396689e-10 1.2282031796879137e-10  1.9999999998067341e+02 -2.6603190988249726e-11 -5.0539269856722708e-11  1.9999999998142363e+02 -9.8787001606491781e-11 -8.4228864030561874e-11  1.9999999998147800e+02 -1.2032855102503600e-10 -1.1313793854777913e-10  1.9999999998245454e+02 8.7762115962136153e-11 1.3031682855810140e-10  1.9999999998147115e+02 -9.8093618400232156e-11 -4.1282901306272442e-11  1.9999999997976590e+02 -5.8306307119068601e-11 -6.5118272612174879e-11  1.9999999997883609e+02 2.3253145791920646e-12 -1.0979457541631672e-10  1.9999999997906332e+02 9.3284867800027848e-12 -4.7044149165954633e-11  1.9999999997914932e+02 7.0316754217205502e-11 1.1613853082344058e-10  1.9999999997976954e+02 3.9803902245376587e-11 -1.1660891166761145e-10  1.9999999997899587e+02 6.1809727786931628e-11 1.7713593007547583e-11  1.9999999997914776e+02 -7.7074205208328025e-11 1.2060469129415269e-10  1.9999999997905249e+02 -4.4928091411287781e-11 8.8337444838215977e-11  1.9999999997974845e+02 -1.2730801314071638e-11 -1.6350429026104710e-10  1.9999999997988675e+02 1.4078905622323409e-10 -7.8062725359868069e-11  1.9999999997974814e+02 -1.3872577191488873e-10 -1.0025438407086428e-10  1.9999999997982110e+02 -2.3370218897704011e-11 -3.0756601632759372e-11  1.9999999997816860e+02 -6.2108258020802735e-11 -1.0871819249449188e-10  1.9999999997805000e+02 -1.7670736767775957e-10 -3.6354694295477973e-11  1.9999999997819913e+02 1.5356643245538907e-11 5.6801728172238490e-11  1.9999999997751490e+02 1.0511515530930482e-11 3.3185441004976437e-11  1.9999999997720266e+02 1.8157200714535497e-11 -8.4573735205680840e-11  1.9999999997736913e+02 2.7927099218524351e-11 6.1596928466869639e-12  1.9999999997752519e+02 4.9039100563569638e-11 -1.7664643537364932e-12  1.9999999997807458e+02 8.0311900771523949e-11 -6.6623738535695630e-11  1.9999999997733872e+02 1.0339968030032226e-10 -4.0879018466027945e-12  1.9999999997754117e+02 -7.5303217177409578e-11 1.0620575044632463e-10  1.9999999997746863e+02 -8.1684247929952758e-12 4.1957365335689125e-11  1.9999999997810045e+02 7.8821161531743192e-11 -9.0529060595484127e-11  1.9999999997816775e+02 6.5159882495665074e-11 -8.3804538588868165e-11  1.9999999997818671e+02 -7.9381850211139942e-11 1.0381748299514604e-10  1.9999999997658273e+02 -9.4380255622145906e-11 -2.3992768669515459e-11  1.9999999997640410e+02 -2.2462959790580263e-11 2.0366259116424552e-11  1.9999999997650414e+02 3.6010810306035166e-12 -9.7930380192829570e-11  1.9999999997655968e+02 2.6859839531919548e-11 -6.0256954074848090e-11  1.9999999997592496e+02 -5.5905015834201562e-11 5.8602970733589332e-11  1.9999999998149056e+02 -5.0743603635232359e-11 -9.0799478689037775e-11  1.9999999998143767e+02 -1.8126936679388881e-10 1.4455718456860165e-11  1.9999999998144773e+02 6.7727306472854402e-11 -4.6289209019690645e-11  1.9999999998147848e+02 9.2649879747944244e-11 -1.3427437967271462e-11  1.9999999998073230e+02 1.4886020931615118e-11 6.6132102399018195e-11  1.9999999998061267e+02 9.1520951986319807e-11 -1.2645766811457017e-10  1.9999999998059877e+02 3.3073417683870444e-11 -8.7180641603657584e-11  1.9999999998070203e+02 3.0300732445436150e-11 -6.8067616194831353e-11  1.9999999998142016e+02 -2.5331859441635702e-11 -8.2364371754971619e-11  1.9999999997986779e+02 6.7390375811622138e-13 -6.2941812566901221e-12  1.9999999997973197e+02 -3.8903268043430300e-11 -2.0792802369256915e-10  1.9999999998144770e+02 -7.4259519245190755e-11 -4.7717417476387273e-11  1.9999999998065528e+02 -1.7894217483857738e-10 -1.8874631427414652e-10  1.9999999997979231e+02 -1.0310748759892286e-10 -8.5777263755014523e-11  1.9999999997896791e+02 -3.5831695100916161e-11 -1.3773591824654215e-10  1.9999999997814544e+02 2.8644520829088820e-11 -7.8989247650073516e-11  1.9999999997648956e+02 1.6332195364882604e-11 -8.8596631127977194e-11  1.9999999997916433e+02 1.1567479522907791e-10 5.8412461922934834e-11  1.9999999997819879e+02 -9.1449636277969962e-11 4.7334576100774326e-11  1.9999999997812151e+02 -9.8332423606001390e-11 -1.4535667057507349e-10  1.9999999997818796e+02 -7.022089