<?xml version="1.0"?>
<VTKFile type="UnstructuredGrid"  version="0.1"  >
<UnstructuredGrid>
<Piece  NumberOfPoints="3819" NumberOfCells="18971">
<Points>
<DataArray  type="Float64"  NumberOfComponents="3"  format="ascii">25 27.5 32.5  25 28.75 33.75  25 28.75 32.5  23.75 28.75 33.75  25 30 32.5  25 30 33.75  25 30 35  25 27.5 33.75  25 27.5 35  25 28.75 35  26.25 28.75 33.75  26.25 30 33.75  26.25 30 35  27.5 30 35  26.25 31.25 33.75  26.25 31.25 35  27.5 31.25 35  27.5 32.5 35  25 31.25 35  25 32.5 35  26.25 32.5 35  26.25 32.5 33.75  26.25 33.75 35  26.25 33.75 33.75  27.5 33.75 35  27.5 35 35  26.25 35 35  26.25 35 33.75  27.5 36.25 35  26.25 36.25 35  26.25 36.25 33.75  27.5 37.5 35  26.25 31.25 36.25  27.5 31.25 36.25  27.5 32.5 36.25  27.5 32.5 37.5  26.25 32.5 36.25  26.25 33.75 36.25  27.5 33.75 36.25  27.5 35 36.25  27.5 35 37.5  27.5 33.75 37.5  26.25 33.75 37.5  26.25 35 36.25  27.5 36.25 36.25  26.25 36.25 36.25  27.5 37.5 36.25  27.5 37.5 37.5  27.5 36.25 37.5  27.5 33.75 38.75  26.25 33.75 38.75  27.5 35 38.75  27.5 35 40  26.25 35 38.75  27.5 36.25 38.75  26.25 36.25 38.75  32.5 25 25  32.5 25 26.25  32.5 23.75 26.25  31.25 23.75 26.25  32.5 25 27.5  32.5 23.75 27.5  31.25 23.75 27.5  30 25 25  31.25 25 26.25  31.25 25 25  30 25 27.5  31.25 25 27.5  30 25 26.25  35 22.5 27.5  35 23.75 27.5  33.75 23.75 27.5  33.75 23.75 26.25  35 25 27.5  33.75 25 27.5  33.75 25 26.25  27.5 25 25  27.5 26.25 26.25  27.5 26.25 25  26.25 26.25 26.25  26.25 26.25 25  27.5 27.5 25  27.5 27.5 26.25  27.5 27.5 27.5  27.5 25 26.25  27.5 25 27.5  27.5 26.25 27.5  25 25 27.5  26.25 26.25 27.5  26.25 25 27.5  25 27.5 27.5  26.25 27.5 27.5  28.75 26.25 26.25  28.75 26.25 25  28.75 25 25  30 26.25 26.25  30 26.25 25  30 27.5 25  30 27.5 26.25  30 27.5 27.5  28.75 25 26.25  30 26.25 27.5  28.75 26.25 27.5  28.75 25 27.5  28.75 27.5 26.25  28.75 27.5 25  28.75 27.5 27.5  31.25 26.25 26.25  32.5 26.25 26.25  32.5 26.25 27.5  32.5 27.5 27.5  31.25 26.25 27.5  31.25 27.5 27.5  31.25 27.5 26.25  33.75 26.25 26.25  33.75 25 25  35 25 25  35 26.25 26.25  35 25 26.25  35 26.25 27.5  35 27.5 27.5  33.75 26.25 27.5  33.75 27.5 27.5  36.25 26.25 26.25  36.25 25 26.25  36.25 25 25  37.5 25 25  37.5 26.25 26.25  37.5 25 26.25  37.5 25 27.5  37.5 26.25 27.5  37.5 27.5 27.5  36.25 26.25 27.5  36.25 25 27.5  36.25 27.5 27.5  38.75 26.25 26.25  38.75 25 26.25  38.75 25 25  40 25 25  40 26.25 26.25  40 25 26.25  40 25 27.5  40 26.25 27.5  40 27.5 27.5  38.75 26.25 27.5  38.75 25 27.5  38.75 27.5 27.5  41.25 26.25 26.25  41.25 25 26.25  41.25 25 25  42.5 25 25  42.5 26.25 26.25  42.5 25 26.25  42.5 25 27.5  42.5 26.25 27.5  42.5 27.5 27.5  41.25 26.25 27.5  41.25 25 27.5  41.25 27.5 27.5  43.75 26.25 26.25  43.75 26.25 27.5  43.75 27.5 27.5  45 27.5 27.5  28.75 28.75 26.25  30 28.75 26.25  30 28.75 27.5  30 30 27.5  28.75 28.75 27.5  27.5 28.75 26.25  27.5 28.75 27.5  27.5 30 27.5  28.75 30 27.5  31.25 28.75 26.25  31.25 28.75 27.5  32.5 28.75 27.5  32.5 30 27.5  31.25 30 27.5  27.5 25 28.75  27.5 23.75 28.75  26.25 23.75 28.75  27.5 25 30  26.25 25 28.75  25 25 30  26.25 25 30  26.25 23.75 30  30 25 28.75  30 23.75 28.75  28.75 23.75 28.75  30 25 30  30 23.75 30  28.75 23.75 30  28.75 25 28.75  28.75 25 30  32.5 25 28.75  32.5 23.75 28.75  31.25 23.75 28.75  32.5 25 30  32.5 22.5 30  32.5 23.75 30  31.25 23.75 30  31.25 25 28.75  31.25 25 30  35 23.75 28.75  33.75 23.75 28.75  35 25 28.75  35 25 30  35 22.5 28.75  35 22.5 30  35 23.75 30  33.75 23.75 30  33.75 22.5 30  33.75 25 28.75  33.75 25 30  36.25 23.75 28.75  36.25 23.75 27.5  36.25 22.5 27.5  37.5 22.5 27.5  37.5 23.75 28.75  37.5 23.75 27.5  37.5 25 28.75  37.5 25 30  36.25 22.5 28.75  37.5 22.5 28.75  37.5 22.5 30  37.5 23.75 30  36.25 23.75 30  36.25 22.5 30  36.25 25 28.75  36.25 25 30  38.75 23.75 28.75  38.75 22.5 28.75  38.75 23.75 30  38.75 22.5 30  40 22.5 30  40 23.75 30  40 25 30  38.75 23.75 27.5  38.75 25 28.75  40 25 28.75  38.75 25 30  26.25 26.25 28.75  27.5 26.25 28.75  27.5 27.5 28.75  27.5 27.5 30  27.5 26.25 30  26.25 26.25 30  26.25 27.5 28.75  25 27.5 30  26.25 27.5 30  28.75 26.25 28.75  30 26.25 28.75  30 27.5 28.75  30 27.5 30  30 26.25 30  28.75 26.25 30  28.75 27.5 28.75  28.75 27.5 30  31.25 26.25 28.75  32.5 26.25 28.75  32.5 27.5 28.75  32.5 27.5 30  32.5 26.25 30  31.25 26.25 30  31.25 27.5 28.75  31.25 27.5 30  33.75 26.25 28.75  35 26.25 28.75  35 27.5 28.75  35 27.5 30  35 26.25 30  33.75 26.25 30  33.75 27.5 28.75  33.75 27.5 30  36.25 26.25 28.75  37.5 26.25 28.75  37.5 27.5 28.75  37.5 27.5 30  37.5 26.25 30  36.25 26.25 30  36.25 27.5 28.75  36.25 27.5 30  38.75 26.25 28.75  40 26.25 28.75  40 27.5 28.75  40 27.5 30  40 26.25 30  38.75 26.25 30  38.75 27.5 28.75  38.75 27.5 30  41.25 26.25 28.75  42.5 26.25 28.75  42.5 27.5 28.75  42.5 27.5 30  41.25 25 28.75  42.5 25 28.75  42.5 25 30  42.5 26.25 30  41.25 26.25 30  41.25 25 30  41.25 27.5 28.75  41.25 27.5 30  43.75 26.25 28.75  43.75 25 28.75  43.75 26.25 30  43.75 25 30  45 25 30  45 26.25 30  45 27.5 30  43.75 27.5 28.75  45 27.5 28.75  43.75 27.5 30  26.25 28.75 28.75  26.25 28.75 27.5  27.5 28.75 28.75  27.5 30 28.75  27.5 30 30  27.5 28.75 30  26.25 28.75 30  25 30 30  26.25 30 30  28.75 28.75 28.75  30 28.75 28.75  30 30 28.75  30 30 30  30 28.75 30  28.75 28.75 30  28.75 30 28.75  28.75 30 30  31.25 28.75 28.75  32.5 28.75 28.75  32.5 30 28.75  32.5 30 30  32.5 28.75 30  31.25 28.75 30  31.25 30 28.75  31.25 30 30  33.75 28.75 28.75  33.75 28.75 27.5  35 28.75 28.75  35 28.75 27.5  35 30 27.5  35 30 28.75  35 30 30  35 28.75 30  33.75 28.75 30  33.75 30 28.75  33.75 30 27.5  33.75 30 30  36.25 28.75 28.75  36.25 28.75 27.5  37.5 28.75 28.75  37.5 28.75 27.5  37.5 30 27.5  37.5 30 28.75  37.5 30 30  37.5 28.75 30  36.25 28.75 30  36.25 30 28.75  36.25 30 27.5  36.25 30 30  38.75 28.75 28.75  38.75 28.75 27.5  40 28.75 28.75  40 28.75 27.5  40 30 27.5  40 30 28.75  40 30 30  40 28.75 30  38.75 28.75 30  38.75 30 28.75  38.75 30 27.5  38.75 30 30  41.25 28.75 28.75  41.25 28.75 27.5  42.5 28.75 28.75  42.5 28.75 27.5  42.5 30 27.5  42.5 30 28.75  42.5 30 30  42.5 28.75 30  41.25 28.75 30  41.25 30 28.75  41.25 30 27.5  41.25 30 30  43.75 28.75 28.75  43.75 28.75 27.5  45 28.75 28.75  45 28.75 27.5  45 30 27.5  45 30 28.75  45 30 30  45 28.75 30  43.75 28.75 30  43.75 30 28.75  43.75 30 27.5  43.75 30 30  46.25 28.75 28.75  46.25 27.5 28.75  46.25 27.5 27.5  47.5 27.5 27.5  47.5 28.75 28.75  47.5 27.5 28.75  47.5 27.5 30  47.5 28.75 30  47.5 30 30  46.25 28.75 30  46.25 27.5 30  46.25 30 30  46.25 30 28.75  48.75 28.75 28.75  48.75 27.5 28.75  48.75 27.5 27.5  50 27.5 27.5  50 28.75 28.75  50 27.5 28.75  50 27.5 30  50 28.75 30  50 30 30  48.75 28.75 30  48.75 27.5 30  48.75 30 30  28.75 31.25 28.75  30 31.25 28.75  30 31.25 30  30 32.5 30  28.75 31.25 30  27.5 31.25 28.75  27.5 31.25 30  27.5 32.5 30  28.75 32.5 30  31.25 31.25 28.75  31.25 31.25 27.5  32.5 31.25 28.75  32.5 31.25 27.5  32.5 32.5 27.5  32.5 32.5 28.75  32.5 32.5 30  32.5 31.25 30  31.25 31.25 30  31.25 32.5 30  33.75 31.25 28.75  33.75 31.25 27.5  35 31.25 28.75  35 31.25 27.5  35 32.5 27.5  35 32.5 28.75  35 32.5 30  35 31.25 30  33.75 31.25 30  33.75 32.5 28.75  33.75 32.5 27.5  33.75 32.5 30  36.25 31.25 28.75  36.25 31.25 27.5  37.5 31.25 28.75  37.5 31.25 27.5  37.5 32.5 27.5  37.5 32.5 28.75  37.5 32.5 30  37.5 31.25 30  36.25 31.25 30  36.25 32.5 28.75  36.25 32.5 27.5  36.25 32.5 30  38.75 31.25 28.75  40 31.25 28.75  40 31.25 30  40 32.5 30  38.75 31.25 30  38.75 32.5 30  38.75 32.5 28.75  41.25 31.25 28.75  42.5 31.25 28.75  42.5 31.25 30  42.5 32.5 30  41.25 31.25 30  41.25 32.5 30  43.75 31.25 28.75  45 31.25 28.75  45 31.25 30  45 32.5 30  43.75 31.25 30  43.75 32.5 30  46.25 31.25 28.75  46.25 31.25 30  47.5 31.25 30  47.5 32.5 30  46.25 32.5 30  33.75 33.75 28.75  35 33.75 28.75  35 33.75 30  35 35 30  33.75 33.75 30  36.25 33.75 28.75  37.5 33.75 28.75  37.5 33.75 30  37.5 35 30  36.25 33.75 30  36.25 35 30  38.75 33.75 28.75  38.75 33.75 30  40 33.75 30  40 35 30  38.75 35 30  27.5 25 31.25  27.5 23.75 31.25  26.25 23.75 31.25  27.5 25 32.5  26.25 25 31.25  30 25 31.25  30 23.75 31.25  28.75 23.75 31.25  30 25 32.5  28.75 25 31.25  28.75 25 32.5  32.5 23.75 31.25  31.25 23.75 31.25  32.5 25 31.25  32.5 25 32.5  32.5 22.5 31.25  32.5 22.5 32.5  32.5 23.75 32.5  31.25 25 31.25  31.25 25 32.5  33.75 23.75 31.25  35 23.75 31.25  35 25 31.25  35 25 32.5  33.75 25 31.25  33.75 25 32.5  36.25 23.75 31.25  37.5 23.75 31.25  37.5 25 31.25  37.5 25 32.5  36.25 25 31.25  36.25 25 32.5  38.75 23.75 31.25  40 23.75 31.25  40 25 31.25  40 25 32.5  38.75 25 31.25  38.75 25 32.5  41.25 23.75 31.25  41.25 23.75 30  41.25 25 31.25  42.5 25 31.25  42.5 25 32.5  41.25 25 32.5  26.25 26.25 31.25  27.5 26.25 31.25  27.5 27.5 31.25  27.5 27.5 32.5  27.5 26.25 32.5  26.25 26.25 32.5  26.25 27.5 31.25  26.25 27.5 32.5  28.75 26.25 31.25  30 26.25 31.25  30 27.5 31.25  30 27.5 32.5  30 26.25 32.5  28.75 26.25 32.5  28.75 27.5 31.25  28.75 27.5 32.5  31.25 26.25 31.25  32.5 26.25 31.25  32.5 27.5 31.25  32.5 27.5 32.5  32.5 26.25 32.5  31.25 26.25 32.5  31.25 27.5 31.25  31.25 27.5 32.5  33.75 26.25 31.25  35 26.25 31.25  35 27.5 31.25  35 27.5 32.5  35 26.25 32.5  33.75 26.25 32.5  33.75 27.5 31.25  33.75 27.5 32.5  36.25 26.25 31.25  37.5 26.25 31.25  37.5 27.5 31.25  37.5 27.5 32.5  37.5 26.25 32.5  36.25 26.25 32.5  36.25 27.5 31.25  36.25 27.5 32.5  38.75 26.25 31.25  40 26.25 31.25  40 27.5 31.25  40 27.5 32.5  40 26.25 32.5  38.75 26.25 32.5  38.75 27.5 31.25  38.75 27.5 32.5  41.25 26.25 31.25  42.5 26.25 31.25  42.5 27.5 31.25  42.5 27.5 32.5  42.5 26.25 32.5  41.25 26.25 32.5  41.25 27.5 31.25  41.25 27.5 32.5  43.75 26.25 31.25  45 26.25 31.25  45 27.5 31.25  45 27.5 32.5  43.75 25 31.25  45 25 31.25  45 25 32.5  45 26.25 32.5  43.75 26.25 32.5  43.75 25 32.5  43.75 27.5 31.25  43.75 27.5 32.5  46.25 26.25 31.25  46.25 25 31.25  46.25 26.25 32.5  46.25 25 32.5  47.5 25 32.5  47.5 26.25 32.5  47.5 27.5 32.5  46.25 27.5 32.
[...]
<PointData  Vectors="u"> 
<DataArray  type="Float64"  Name="u"  NumberOfComponents="3" format="ascii">1.9999999998245744e+02 -4.7797614726153882e-11 8.1282623114739513e-11  1.9999999998216489e+02 6.8412616972017712e-11 -1.5189220507298954e-10  1.9999999998226772e+02 1.3162133471358278e-10 1.0257699815216708e-11  1.9999999998312617e+02 1.0892734709854517e-11 -9.0124037511754006e-11  1.9999999998246625e+02 -5.2785938520834034e-11 1.0688040534117693e-10  1.9999999998224195e+02 -1.4585459874384525e-11 -8.6944833377419524e-11  1.9999999998248316e+02 -2.1495210753439352e-11 7.8058227789649390e-11  1.9999999998223177e+02 1.3570498855347727e-10 2.5657051825993197e-11  1.9999999998240554e+02 -6.4363664810706942e-11 4.9301509235405604e-11  1.9999999998233969e+02 -8.8023810539813408e-12 -2.5050429177995302e-11  1.9999999998144980e+02 3.9984131410950489e-11 -5.8851669607701766e-11  1.9999999998133040e+02 -1.0235171639474446e-11 -6.2876181680816670e-11  1.9999999998146995e+02 -8.6014271920633584e-12 -1.1271399344538024e-10  1.9999999998077823e+02 3.7965119697323498e-11 3.6756697425544524e-11  1.9999999998145364e+02 -8.2143788904485064e-11 -4.5054387995623409e-11  1.9999999998140558e+02 -7.5136545316024664e-11 -2.2921566121107851e-10  1.9999999998060511e+02 -2.3158130070744454e-11 3.7342899207768819e-11  1.9999999998080003e+02 8.7687828497571443e-11 3.3837669624991164e-11  1.9999999998235165e+02 1.7419633829260634e-11 -3.5847634457717247e-11  1.9999999998244684e+02 7.4915746402326625e-11 7.3909081270261063e-11  1.9999999998147462e+02 2.8105179237671180e-12 -3.0109255797228405e-11  1.9999999998144258e+02 -2.3454668169918612e-10 -7.0019043221415988e-11  1.9999999998144301e+02 -1.4837809644274919e-10 -2.4557703544085823e-10  1.9999999998147618e+02 -8.4464406860331719e-11 -8.3072105637676078e-11  1.9999999998059826e+02 -6.0218378640367656e-11 5.5404806843821043e-11  1.9999999998081492e+02 1.1846338755922778e-10 5.6885120092113680e-11  1.9999999998152276e+02 -3.0262682576147448e-12 -3.5071726748038798e-11  1.9999999998143369e+02 -2.4694358820700707e-10 -8.1908044991303896e-11  1.9999999998063342e+02 -3.1199970460392394e-11 9.9811060540171035e-11  1.9999999998141254e+02 -1.0849143466100394e-10 -1.7563413343050193e-10  1.9999999998142448e+02 -7.9003261195042972e-11 -7.7858640671260951e-11  1.9999999998077288e+02 7.9092890152707955e-11 5.9847541290434165e-11  1.9999999998144276e+02 -5.3902485042348916e-11 -1.1110026454632482e-10  1.9999999998057709e+02 -8.1492934409771881e-11 -1.0581778324545533e-10  1.9999999998061858e+02 1.1397767910278218e-11 2.0095685103898480e-11  1.9999999998082586e+02 1.0169634926855617e-10 9.1338200239642353e-11  1.9999999998145452e+02 -2.4251741488635931e-10 -1.0907853015865217e-10  1.9999999998144804e+02 -1.0940231159150627e-10 -9.2612928346737906e-11  1.9999999998059499e+02 -1.2150092493020566e-10 -1.0509007418676769e-10  1.9999999998067568e+02 2.1524114571737084e-11 -2.4001149597023794e-11  1.9999999998081157e+02 6.8072125004637300e-11 8.4701847186160734e-11  1.9999999998064649e+02 -5.3261592936350798e-11 2.3700083056271661e-11  1.9999999998146473e+02 -1.1588538474780868e-10 -1.2425392910240589e-10  1.9999999998144159e+02 -1.4745445997774859e-10 -1.1001246060624299e-10  1.9999999998058217e+02 -1.5005083801243285e-10 -1.2713746568318903e-10  1.9999999998144560e+02 -8.2144002981958691e-11 -1.0379152369484180e-10  1.9999999998061406e+02 2.8595147275731736e-11 -1.7619053277897853e-11  1.9999999998080969e+02 7.6819317967713428e-11 8.6529389704259881e-11  1.9999999998063649e+02 2.5042699063020460e-11 -4.7229474864975782e-12  1.9999999998059812e+02 -1.1931022985372305e-10 -1.2605035226701725e-10  1.9999999998146671e+02 -8.0316618734536035e-11 -9.0689428252543519e-11  1.9999999998062762e+02 -4.9246288412681281e-11 8.4955400582609789e-12  1.9999999998079747e+02 7.0223418412325547e-11 7.1536322865304258e-11  1.9999999998144966e+02 -1.9168842110262003e-10 -1.0506168503404079e-10  1.9999999998054338e+02 -1.1308353666029503e-10 -1.1495047128083495e-10  1.9999999998145782e+02 -1.0496868432412088e-10 -9.7041932100575455e-11  1.9999999997752036e+02 5.0999312864266023e-11 -2.3229022810644927e-12  1.9999999997738800e+02 -1.8993482597550328e-11 -1.6732405622771600e-11  1.9999999997720630e+02 2.1918105126063768e-11 -8.3759843989563246e-11  1.9999999997816735e+02 -6.9010407044227446e-11 -1.0691904830617090e-10  1.9999999997753477e+02 4.6468076528060067e-11 1.2276797470457796e-10  1.9999999997748154e+02 -3.7493148719165375e-12 3.1476007633983016e-11  1.9999999997809820e+02 8.1952372268733893e-11 -1.0662449998005128e-10  1.9999999997915833e+02 1.0338810141135435e-10 2.3285545622657642e-11  1.9999999997813063e+02 -1.2763078273026586e-10 -1.0552493292363863e-10  1.9999999997819842e+02 -7.5595183933172015e-11 9.2188905508114098e-11  1.9999999997915288e+02 7.4887833997732507e-11 1.1584616980139165e-10  1.9999999997823130e+02 6.8343617137301378e-11 -5.5418378472928516e-11  1.9999999997905402e+02 -1.9919374355532213e-13 -4.6272054646729497e-11  1.9999999997592221e+02 -5.5677861880040699e-11 6.4994384666230417e-11  1.9999999997562753e+02 4.9503580222673487e-12 -3.1517411589426670e-11  1.9999999997649599e+02 -7.1972699231686044e-12 -9.5363667761972451e-11  1.9999999997658281e+02 -8.2118883525717887e-11 -1.9007427034929910e-11  1.9999999997592812e+02 6.1467123963066453e-11 4.8597044596557331e-11  1.9999999997654987e+02 4.0722598376616409e-11 -1.0475552616245302e-10  1.9999999997652367e+02 -2.8629402901730464e-10 -1.8065889799878832e-11  1.9999999998069316e+02 1.0453032987571778e-10 2.8099321383086545e-11  1.9999999998066116e+02 -2.1337892936955549e-10 -1.9450742810141066e-10  1.9999999998069796e+02 -8.8372066778555024e-11 -1.1532224699707318e-12  1.9999999998149477e+02 -5.1514872614933376e-11 -7.9794240268465599e-11  1.9999999998143849e+02 -1.9058464558491667e-10 4.3092234559392950e-12  1.9999999998067128e+02 1.2960305817625786e-10 1.0766056237109353e-11  1.9999999998061836e+02 -8.5551620328603776e-11 -2.8009233134738470e-11  1.9999999998066843e+02 1.3913049617516169e-10 8.0375589825356748e-11  1.9999999998070055e+02 -1.1932671071239378e-10 -7.6063182672607422e-11  1.9999999998069799e+02 9.6822117882006824e-11 1.2284343487584578e-10  1.9999999998071772e+02 -5.8739664158132863e-11 -6.0436087913235259e-11  1.9999999998245292e+02 8.6003734952740307e-11 1.2926883722901157e-10  1.9999999998143173e+02 -8.4781479706164668e-11 -1.2639542132227185e-10  1.9999999998149082e+02 -9.1671788707948153e-11 -3.0692895665771538e-11  1.9999999998243959e+02 9.4293301555109139e-11 4.6350415569894582e-11  1.9999999998147655e+02 -1.2086739343131902e-10 3.1867667669015427e-11  1.9999999997978955e+02 -7.2930052264476103e-11 -9.4483905025144098e-11  1.9999999997969434e+02 -1.7698125816262860e-10 -3.0988301044235340e-11  1.9999999997981271e+02 -1.3450563606155327e-10 -7.3866215524507063e-12  1.9999999997890001e+02 -1.2057401710837787e-10 -8.4129168483837620e-11  1.9999999997895057e+02 -1.7653091572556357e-11 8.9617495563114865e-11  1.9999999997911823e+02 7.0675877712375039e-11 1.5612255905113086e-11  1.9999999997905459e+02 -2.5971596080115217e-11 -1.7287849526224377e-12  1.9999999997914540e+02 8.3549166638192534e-11 7.0408711699301583e-11  1.9999999997974837e+02 -1.3210734511922054e-10 -1.0760227865485886e-10  1.9999999997905707e+02 7.0571059537962058e-12 -2.3530709731375937e-11  1.9999999997977403e+02 -1.1907904966751043e-10 -1.4799907598894506e-10  1.9999999997981902e+02 -2.9897906244325366e-11 -1.9805584453228851e-11  1.9999999997978969e+02 -2.0272546844851762e-10 -1.0643491866171512e-10  1.9999999997985660e+02 -9.7199072024006738e-11 6.8212944798402401e-11  1.9999999997985051e+02 -2.9721829181649274e-11 7.3475281045880255e-12  1.9999999997812949e+02 -8.9039040569994365e-11 -6.3021902149711941e-11  1.9999999997718652e+02 -8.1585875644503748e-11 1.9794103967467408e-12  1.9999999997741321e+02 -3.6403954891320733e-11 -3.9128830188725032e-11  1.9999999997750677e+02 1.0940242574854391e-10 3.8068361621476880e-11  1.9999999997809849e+02 -9.9753804507727832e-11 -1.4451396607874822e-10  1.9999999997817608e+02 1.0577142546111426e-11 -2.7994986874057802e-11  1.9999999997813396e+02 -2.3323377538741846e-10 -5.9009946739659129e-12  1.9999999997655749e+02 -4.6655085259225411e-11 -6.1487312054070520e-11  1.9999999997658776e+02 7.1205722371798463e-12 1.5410486491262253e-10  1.9999999997587838e+02 4.6022850529066009e-11 2.8513214182431050e-11  1.9999999997566277e+02 -1.0043648564296495e-10 3.7788015502570374e-11  1.9999999997578851e+02 4.5326874641973405e-11 1.0047409376184605e-12  1.9999999997571663e+02 -5.1264828284475808e-11 3.2534692220345545e-11  1.9999999997591911e+02 1.2139302778140480e-10 2.1349434365759265e-11  1.9999999997650193e+02 -1.1681393704375842e-10 -2.1220936030722349e-10  1.9999999997659594e+02 -1.0686146128590367e-10 1.3365728145654378e-11  1.9999999997494996e+02 -7.1804710496753150e-11 3.4513874102765119e-11  1.9999999997484102e+02 1.0793106196288561e-12 3.0149534478252032e-11  1.9999999997495922e+02 5.7987201956374732e-11 4.0042716953420939e-11  1.9999999997431956e+02 3.1597896130071069e-11 4.7552073843381036e-11  1.9999999997393817e+02 -8.8791465399858123e-11 -4.8306231532755323e-11  1.9999999997409662e+02 4.2370333142062741e-11 1.9150407155737503e-11  1.9999999997434608e+02 1.8683066147443212e-11 2.7235090021930491e-11  1.9999999997424891e+02 -2.8639774351335207e-11 -5.3927139375263220e-11  1.9999999997435967e+02 1.2093531839469447e-10 -7.2391473984231648e-12  1.9999999997481197e+02 -2.0395002185619982e-10 -3.5636646613779700e-11  1.9999999997497585e+02 -1.0081437188374428e-10 7.9250149158206628e-11  1.9999999997495652e+02 -8.4524205107368431e-11 -2.3427838290630906e-12  1.9999999997336232e+02 -6.7521553519958639e-11 -3.2748137183087123e-11  1.9999999997323769e+02 -5.5541428991070334e-11 -1.9873553824173449e-10  1.9999999997342661e+02 4.9184706983154299e-12 2.1187481771192405e-11  1.9999999997276507e+02 5.2631651860989365e-11 6.1931112551208909e-11  1.9999999997246479e+02 -7.2955746416250182e-11 -5.4606469148580537e-11  1.9999999997261625e+02 5.4243893087397994e-11 -7.9445539400780921e-11  1.9999999997278613e+02 -1.8040414615517062e-11 8.2140109514559738e-11  1.9999999997261884e+02 2.3873670540577190e-11 -5.3628568912064020e-11  1.9999999997275782e+02 1.1145667950761860e-10 -9.1736563774875234e-12  1.9999999997332776e+02 -7.9232956975670448e-11 -1.7873139640788061e-10  1.9999999997337747e+02 7.5021284265821347e-11 -1.0739444943819188e-10  1.9999999997340379e+02 -7.1229332533771014e-11 1.7028533566066684e-11  1.9999999997180089e+02 -5.0005433967738145e-11 -6.3267693064846796e-11  1.9999999997165835e+02 -5.1981199197293179e-11 -1.8469010170244605e-10  1.9999999997186922e+02 2.6889250116637229e-11 -4.1672184036767755e-11  1.9999999997114887e+02 5.6982413507468252e-11 1.5633781253794939e-11  1.9999999997084706e+02 -7.1972939946419856e-11 -1.0585015282761316e-10  1.9999999997105056e+02 2.8486975467171614e-11 -1.5387689939587134e-11  1.9999999997113395e+02 -2.6558758289840924e-11 3.1240076510278762e-11  1.9999999997106883e+02 -1.4547987566974571e-11 -4.9288850058361683e-11  1.9999999997115683e+02 1.0776073351599364e-10 7.1597562946451405e-12  1.9999999997172372e+02 -1.0905178356035920e-10 -2.0788120667451745e-10  1.9999999997183573e+02 3.1080563961221611e-11 -6.6576296096267175e-11  1.9999999997183136e+02 -5.7717942095482411e-11 3.5257865547046067e-11  1.9999999997022701e+02 -1.0431299696804350e-12 -6.6093960811537787e-11  1.9999999997021516e+02 1.4230809716185879e-11 -2.5253763847426233e-10  1.9999999997030395e+02 -8.5884950724873718e-11 9.4601922585715912e-12  1.9999999996964510e+02 6.7143906575242950e-11 4.0469705505974344e-12  1.9999999997982738e+02 -8.4840379913839938e-11 -3.4885199489933289e-11  1.9999999997882142e+02 -9.6340337607971748e-11 -1.0504496905719974e-11  1.9999999997904959e+02 -5.2078397088709009e-11 -3.1852775137898218e-11  1.9999999997911789e+02 7.9958043450000912e-11 2.9566517594612321e-11  1.9999999997986350e+02 -1.1990610215747876e-10 -1.9095002798089827e-10  1.9999999998080460e+02 -9.9031782933973676e-11 -1.2234544922541012e-11  1.9999999998080568e+02 -4.5852165670179359e-11 -1.2203622972641509e-10  1.9999999998064453e+02 1.1445283030080523e-10 6.6361105186132869e-11  1.9999999997983616e+02 -6.1693447950641133e-11 1.1893916705576779e-10  1.9999999997819364e+02 -7.3015535896438285e-11 1.1262819280636481e-11  1.9999999997813583e+02 -1.0841539480966225e-10 -2.2883423788070988e-10  1.9999999997731462e+02 2.3771896058591457e-12 3.9229022933842723e-11  1.9999999997750473e+02 9.2042250495521880e-11 -1.0216916428300356e-12  1.9999999997823471e+02 -1.4906736284861188e-10 4.2266265942215673e-12  1.9999999998068049e+02 -9.4388039894205386e-11 -4.8820334439161430e-11  1.9999999998065147e+02 -1.7773577821745185e-10 -1.9790046580719853e-10  1.9999999998145046e+02 -7.2197444382635726e-11 -5.1341882328227821e-11  1.9999999998068512e+02 9.7564628679450426e-11 1.0778923477825228e-10  1.9999999998143491e+02 -1.0964887901934939e-10 -8.4921384484328375e-11  1.9999999998244775e+02 6.1407508487953411e-11 6.1880033541163888e-11  1.9999999998150440e+02 -5.9753293486098356e-11 -6.3681194739252552e-11  1.9999999998141249e+02 -1.2044028946648047e-10 -5.8037361046932434e-11  1.9999999997895685e+02 6.5603585161337009e-11 -2.8334375227687521e-11  1.9999999997896833e+02 -3.6910030466490590e-11 -1.4350668781715633e-10  1.9999999997979432e+02 -1.0725347417150284e-10 -8.1624555378130816e-11  1.9999999997912815e+02 1.0334156241275673e-10 9.1777808995816043e-11  1.9999999997902756e+02 -2.0447549399992224e-11 2.7799663646383022e-11  1.9999999997977014e+02 -9.6440868495358042e-11 -1.6246358337272707e-10  1.9999999997977031e+02 -1.5931143437010292e-10 -8.1529150892007057e-11  1.9999999997985867e+02 -2.4239801840180961e-11 -6.7392175373197371e-12  1.9999999997731589e+02 1.5630793327051266e-11 -3.8168170614513691e-11  1.9999999997734469e+02 9.9879958237707833e-11 -1.0051928982992489e-10  1.9999999997814251e+02 2.6844857726475251e-11 -7.5653547697252269e-11  1.9999999997754648e+02 1.6212039464726110e-11 9.2128478220141515e-11  1.9999999997751056e+02 -4.6812011007097050e-11 9.1116982411511957e-11  1.9999999997742029e+02 4.2809939168205382e-12 2.4109336295396659e-11  1.9999999997817028e+02 -2.6673619401455585e-11 -2.2678878213282988e-10  1.9999999997805790e+02 2.8652797402299351e-11 -2.0916899847971082e-10  1.9999999997821146e+02 -2.5276599279326808e-11 1.9097205452625828e-11  1.9999999997555611e+02 3.5903854028586985e-13 -9.8810941543475007e-11  1.9999999997648180e+02 8.6731251551820622e-12 -9.0115787405613208e-11  1.9999999997583905e+02 -1.6260860385991156e-11 -6.0464923425093347e-11  1.9999999997594941e+02 2.8055535719042469e-11 1.2210912283054435e-10  1.9999999997574844e+02 4.6602384728810497e-11 -3.9059443643254336e-12  1.9999999997592457e+02 -8.9808996117092366e-11 1.0599541869894261e-10  1.9999999997582566e+02 -2.2508318680654185e-11 4.3494782575593149e-11  1.9999999997646844e+02 8.3151389699360075e-11 -1.6387929865954101e-10  1.9999999997657204e+02 7.6799435932464832e-11 -7.5849194401013415e-11  1.9999999997639941e+02 6.0324569360155858e-12 -2.3855741560965575e-10  1.9999999997646836e+02 2.4685103872440948e-11 -3.3677614971687514e-11  1.9999999997494339e+02 -6.5449851374350631e-11 -7.1688053212429734e-11  1.9999999997484790e+02 -5.8524458596309965e-12 -7.9012028769228586e-11  1.9999999997499631e+02 8.9970693510651905e-11 2.3784911139909266e-11  1.9999999997425681e+02 -3.1362864934609119e-11 1.9457178381632412e-11  1.9999999997412885e+02 1.2095523800597898e-10 -1.0020297538472049e-10  1.9999999997418422e+02 -7.9333186240840931e-13 2.9770968511558335e-11  1.9999999997415637e+02 2.2932752264100508e-11 -4.6465919670786503e-11  1.9999999997432045e+02 -4.4692394801815754e-12 1.0462089024214136e-10  1.9999999997487365e+02 3.4945794053810730e-11 -1.3087016160561736e-10  1.9999999997413548e+02 8.4304086131477323e-11 -5.1341349933261522e-13  1.9999999997430257e+02 -1.0558728815789684e-10 1.2708666722261040e-10  1.9999999997425792e+02 7.1675489780813987e-12 4.0303455706563110e-12  1.9999999997486657e+02 1.0050846427398231e-10 -1.0266829269201738e-10  1.9999999997497804e+02 4.2983611853819913e-11 -1.6906344231714892e-11  1.9999999997485409e+02 -2.1034093674283261e-10 -1.0368196183266183e-10  1.9999999997495317e+02 7.6382838548437987e-12 -6.9026214835922262e-11  1.9999999997343414e+02 -9.8632802778741841e-12 -6.1153568847775078e-11  1.9999999997319955e+02 -1.8538731535715393e-11 2.6817571161155548e-11  1.9999999997330440e+02 -2.4571816080950296e-11 -1.7998594300990663e-10  1.9999999997340149e+02 -3.6338602176480076e-12 -8.9199329820933971e-11  1.9999999997269049e+02 -1.7530646686759517e-12 9.4460993681098811e-11  1.9999999997251393e+02 -1.6987659036343108e-11 -2.2928630493014501e-11  1.9999999997277794e+02 -2.2782640109795749e-12 7.8517525998948664e-11  1.9999999997325207e+02 2.1851202730921075e-10 9.0677767397496297e-12  1.9999999997322354e+02 -1.2617159329848032e-12 -2.0888430016761435e-10  1.9999999997260994e+02 2.9152201147540130e-11 -8.7282450899010883e-11  1.9999999997337542e+02 1.9980314817514730e-12 -1.1583848416811687e-10  1.9999999998146833e+02 -7.3052463179455079e-11 -3.6523395436108342e-11  1.9999999998068660e+02 -2.1710732614689612e-10 -2.0729223430099696e-10  1.9999999998072968e+02 -1.1808829103951641e-10 -1.5716780965098185e-11  1.9999999998068139e+02 1.0995296593917259e-10 1.4049877416151323e-10  1.9999999998070459e+02 -3.5668264617154005e-11 -9.5314910983219145e-11  1.9999999998143031e+02 -9.1730467255955939e-11 -6.5513077866458445e-11  1.9999999998141209e+02 -1.1470122550660910e-10 -9.2079931015330293e-11  1.9999999998245525e+02 2.6472471317214761e-11 6.7145092935223163e-11  1.9999999998150921e+02 -6.2253437634907421e-11 -2.7822438656160723e-11  1.9999999997977307e+02 -7.3238504043282031e-11 -4.9471026393806824e-11  1.9999999997888011e+02 -1.0287784568543731e-10 -9.8288071470287406e-11  1.9999999997902881e+02 -2.6263126945621574e-11 -5.0926211810152126e-12  1.9999999997908972e+02 7.2443992819224532e-11 8.2602272040426033e-11  1.9999999997902307e+02 -3.4959543270000401e-11 1.6277144664013398e-11  1.9999999997981408e+02 -9.1474049882179024e-11 -1.7432606100026602e-10  1.9999999997980251e+02 -2.1894251043009658e-10 -1.0218142239157802e-10  1.9999999997987462e+02 -2.6807309240301716e-11 1.8232717029758552e-11  1.9999999997814660e+02 -1.0784540263156716e-10 -8.3082652879611189e-11  1.9999999997724035e+02 -1.1938652308374710e-10 -1.1100265335652795e-10  1.9999999997738570e+02 -2.0026275912210294e-11 -3.1437427861855815e-11  1.9999999997749629e+02 8.8583507756070901e-11 7.4530744508063098e-11  1.9999999997739300e+02 -7.0543896424475069e-11 -4.0914154258399641e-11  1.9999999997810085e+02 -1.1497560733690625e-10 -1.7882765546521818e-10  1.9999999997811369e+02 -1.6558378489678287e-10 -1.3474206580256849e-10  1.9999999997816786e+02 -2.7214625810978513e-11 -1.1128861112348714e-11  1.9999999997654015e+02 -9.1128540518729366e-11 -7.5493800470831798e-11  1.9999999997561335e+02 -1.1549544606848879e-10 -1.1533120074515649e-10  1.9999999997580193e+02 -3.2267028090985239e-11 -5.1140372550310911e-11  1.9999999997588287e+02 9.3989669703055492e-11 7.3223568762976558e-11  1.9999999997578320e+02 -4.6809354073711887e-11 -2.1311005324183543e-11  1.9999999997650966e+02 -1.2184507487481330e-10 -1.7131579147671736e-10  1.9999999997651301e+02 -1.9515456285317396e-10 -1.1038317059398879e-10  1.9999999997662169e+02 -4.8342431196324595e-13 -5.8822948681330056e-13  1.9999999997490482e+02 -7.4277258349938688e-11 -8.4088933206941824e-11  1.9999999997409091e+02 -1.0652749055108416e-10 -1.2434641338136038e-10  1.9999999997422006e+02 -2.5239068877438711e-11 -3.0513057706629618e-12  1.9999999997432829e+02 9.0979413689630619e-11 7.0656140083083920e-11  1.9999999997420889e+02 -2.0507236677439715e-11 -2.9885475922261714e-11  1.9999999997489326e+02 -1.2877033655274214e-10 -1.9780179033494905e-10  1.99999999974889