<?xml version="1.0"?>
<VTKFile type="UnstructuredGrid"  version="0.1"  >
<UnstructuredGrid>
<Piece  NumberOfPoints="3966" NumberOfCells="18901">
<Points>
<DataArray  type="Float64"  NumberOfComponents="3"  format="ascii">2.5 0 27.5  2.5 1.25 27.5  2.5 1.25 26.25  1.25 1.25 26.25  2.5 2.5 27.5  0 0 27.5  1.25 1.25 27.5  1.25 0 27.5  1.25 0 26.25  0 1.25 27.5  0 1.25 26.25  0 2.5 27.5  1.25 2.5 27.5  1.25 2.5 26.25  5 0 27.5  5 1.25 27.5  5 1.25 26.25  3.75 1.25 26.25  5 2.5 27.5  3.75 1.25 27.5  3.75 0 27.5  3.75 2.5 27.5  6.25 1.25 27.5  6.25 0 27.5  6.25 1.25 26.25  6.25 0 26.25  7.5 0 27.5  7.5 1.25 27.5  7.5 2.5 27.5  7.5 2.5 25  7.5 2.5 26.25  6.25 2.5 26.25  6.25 2.5 27.5  2.5 3.75 27.5  2.5 3.75 26.25  1.25 3.75 26.25  2.5 5 27.5  1.25 3.75 27.5  0 3.75 27.5  0 3.75 26.25  0 5 27.5  1.25 5 27.5  3.75 3.75 27.5  3.75 3.75 26.25  5 3.75 27.5  5 5 27.5  3.75 5 27.5  7.5 3.75 26.25  7.5 3.75 25  6.25 3.75 26.25  7.5 5 25  7.5 5 26.25  7.5 5 27.5  7.5 3.75 27.5  6.25 3.75 27.5  6.25 5 26.25  6.25 5 27.5  1.25 6.25 27.5  1.25 6.25 26.25  0 6.25 27.5  0 7.5 27.5  7.5 6.25 26.25  6.25 6.25 26.25  7.5 6.25 27.5  7.5 7.5 27.5  6.25 6.25 27.5  1.25 1.25 28.75  2.5 1.25 28.75  2.5 2.5 28.75  2.5 2.5 30  1.25 0 28.75  2.5 0 28.75  2.5 0 30  2.5 1.25 30  0 0 28.75  0 0 30  1.25 1.25 30  1.25 0 30  1.25 2.5 28.75  0 1.25 28.75  0 1.25 30  0 2.5 30  1.25 2.5 30  0 2.5 28.75  3.75 1.25 28.75  5 1.25 28.75  5 2.5 28.75  5 2.5 30  3.75 0 28.75  5 0 28.75  5 0 30  5 1.25 30  3.75 1.25 30  3.75 0 30  3.75 2.5 28.75  3.75 2.5 30  6.25 1.25 28.75  7.5 1.25 28.75  7.5 2.5 28.75  7.5 2.5 30  6.25 0 28.75  7.5 0 28.75  7.5 0 30  7.5 1.25 30  6.25 1.25 30  6.25 0 30  6.25 2.5 28.75  6.25 2.5 30  1.25 3.75 28.75  2.5 3.75 28.75  2.5 5 28.75  2.5 5 30  2.5 3.75 30  1.25 3.75 30  1.25 5 28.75  0 3.75 28.75  0 3.75 30  0 5 30  1.25 5 30  0 5 28.75  3.75 3.75 28.75  5 3.75 28.75  5 5 28.75  5 5 30  5 3.75 30  3.75 3.75 30  3.75 5 28.75  3.75 5 30  6.25 3.75 28.75  7.5 3.75 28.75  7.5 5 28.75  7.5 5 30  7.5 3.75 30  6.25 3.75 30  6.25 5 28.75  6.25 5 30  1.25 6.25 28.75  1.25 6.25 30  0 6.25 28.75  0 6.25 30  0 7.5 30  0 7.5 28.75  6.25 6.25 28.75  7.5 6.25 28.75  1.25 1.25 31.25  2.5 1.25 31.25  2.5 2.5 31.25  2.5 2.5 32.5  1.25 0 31.25  2.5 0 31.25  2.5 0 32.5  2.5 1.25 32.5  0 0 31.25  0 0 32.5  1.25 1.25 32.5  1.25 0 32.5  1.25 2.5 31.25  0 1.25 31.25  0 1.25 32.5  0 2.5 32.5  1.25 2.5 32.5  0 2.5 31.25  3.75 1.25 31.25  5 1.25 31.25  5 2.5 31.25  5 2.5 32.5  3.75 0 31.25  5 0 31.25  5 0 32.5  5 1.25 32.5  3.75 1.25 32.5  3.75 0 32.5  3.75 2.5 31.25  3.75 2.5 32.5  6.25 1.25 31.25  7.5 1.25 31.25  7.5 2.5 31.25  7.5 2.5 32.5  6.25 0 31.25  7.5 0 31.25  7.5 0 32.5  7.5 1.25 32.5  6.25 1.25 32.5  6.25 0 32.5  6.25 2.5 31.25  6.25 2.5 32.5  1.25 3.75 31.25  2.5 3.75 31.25  2.5 5 31.25  2.5 5 32.5  2.5 3.75 32.5  1.25 3.75 32.5  1.25 5 31.25  0 3.75 31.25  0 3.75 32.5  0 5 32.5  1.25 5 32.5  0 5 31.25  3.75 3.75 31.25  5 3.75 31.25  5 5 31.25  5 5 32.5  5 3.75 32.5  3.75 3.75 32.5  3.75 5 31.25  3.75 5 32.5  6.25 3.75 31.25  7.5 3.75 31.25  7.5 5 31.25  7.5 5 32.5  7.5 3.75 32.5  6.25 3.75 32.5  6.25 5 31.25  6.25 5 32.5  1.25 6.25 31.25  2.5 6.25 31.25  2.5 6.25 32.5  2.5 7.5 32.5  1.25 6.25 32.5  0 6.25 31.25  0 6.25 32.5  0 7.5 32.5  0 7.5 31.25  3.75 6.25 31.25  3.75 6.25 32.5  6.25 6.25 31.25  7.5 6.25 31.25  7.5 6.25 32.5  7.5 7.5 32.5  6.25 6.25 32.5  1.25 1.25 33.75  2.5 1.25 33.75  2.5 2.5 33.75  2.5 2.5 35  1.25 0 33.75  2.5 0 33.75  2.5 0 35  2.5 1.25 35  0 0 33.75  0 0 35  1.25 1.25 35  1.25 0 35  1.25 2.5 33.75  0 1.25 33.75  0 1.25 35  0 2.5 35  1.25 2.5 35  0 2.5 33.75  3.75 1.25 33.75  5 1.25 33.75  5 2.5 33.75  5 2.5 35  3.75 0 33.75  5 0 33.75  5 0 35  5 1.25 35  3.75 1.25 35  3.75 0 35  3.75 2.5 33.75  3.75 2.5 35  6.25 1.25 33.75  7.5 1.25 33.75  7.5 2.5 33.75  7.5 2.5 35  6.25 0 33.75  7.5 0 33.75  7.5 0 35  7.5 1.25 35  6.25 1.25 35  6.25 0 35  6.25 2.5 33.75  6.25 2.5 35  1.25 3.75 33.75  2.5 3.75 33.75  2.5 5 33.75  2.5 5 35  2.5 3.75 35  1.25 3.75 35  1.25 5 33.75  0 3.75 33.75  0 3.75 35  0 5 35  1.25 5 35  0 5 33.75  3.75 3.75 33.75  5 3.75 33.75  5 5 33.75  5 5 35  5 3.75 35  3.75 3.75 35  3.75 5 33.75  3.75 5 35  6.25 3.75 33.75  7.5 3.75 33.75  7.5 5 33.75  7.5 5 35  7.5 3.75 35  6.25 3.75 35  6.25 5 33.75  6.25 5 35  1.25 6.25 33.75  2.5 6.25 33.75  2.5 7.5 33.75  2.5 7.5 35  2.5 6.25 35  1.25 6.25 35  0 6.25 33.75  0 6.25 35  0 7.5 35  1.25 7.5 35  0 7.5 33.75  3.75 6.25 33.75  5 6.25 33.75  5 6.25 35  5 7.5 35  3.75 6.25 35  3.75 7.5 35  6.25 6.25 33.75  7.5 6.25 33.75  7.5 6.25 35  7.5 7.5 35  6.25 6.25 35  6.25 7.5 35  1.25 1.25 36.25  2.5 1.25 36.25  2.5 2.5 36.25  2.5 2.5 37.5  1.25 0 36.25  2.5 0 36.25  2.5 0 37.5  2.5 1.25 37.5  0 0 36.25  0 0 37.5  1.25 1.25 37.5  1.25 0 37.5  1.25 2.5 36.25  0 1.25 36.25  0 1.25 37.5  0 2.5 37.5  1.25 2.5 37.5  0 2.5 36.25  3.75 1.25 36.25  5 1.25 36.25  5 2.5 36.25  5 2.5 37.5  3.75 0 36.25  5 0 36.25  5 0 37.5  5 1.25 37.5  3.75 1.25 37.5  3.75 0 37.5  3.75 2.5 36.25  3.75 2.5 37.5  6.25 1.25 36.25  7.5 1.25 36.25  7.5 2.5 36.25  7.5 2.5 37.5  6.25 0 36.25  7.5 0 36.25  7.5 0 37.5  7.5 1.25 37.5  6.25 1.25 37.5  6.25 0 37.5  6.25 2.5 36.25  6.25 2.5 37.5  1.25 3.75 36.25  2.5 3.75 36.25  2.5 5 36.25  2.5 5 37.5  2.5 3.75 37.5  1.25 3.75 37.5  1.25 5 36.25  0 3.75 36.25  0 3.75 37.5  0 5 37.5  1.25 5 37.5  0 5 36.25  3.75 3.75 36.25  5 3.75 36.25  5 5 36.25  5 5 37.5  5 3.75 37.5  3.75 3.75 37.5  3.75 5 36.25  3.75 5 37.5  6.25 3.75 36.25  7.5 3.75 36.25  7.5 5 36.25  7.5 5 37.5  7.5 3.75 37.5  6.25 3.75 37.5  6.25 5 36.25  6.25 5 37.5  1.25 6.25 36.25  2.5 6.25 36.25  2.5 7.5 36.25  2.5 7.5 37.5  2.5 6.25 37.5  1.25 6.25 37.5  1.25 7.5 36.25  0 6.25 36.25  0 6.25 37.5  0 7.5 37.5  1.25 7.5 37.5  0 7.5 36.25  3.75 6.25 36.25  5 6.25 36.25  5 7.5 36.25  5 7.5 37.5  5 6.25 37.5  3.75 6.25 37.5  3.75 7.5 36.25  3.75 7.5 37.5  6.25 6.25 36.25  7.5 6.25 36.25  7.5 7.5 36.25  7.5 7.5 37.5  7.5 6.25 37.5  6.25 6.25 37.5  6.25 7.5 36.25  6.25 7.5 37.5  1.25 8.75 36.25  1.25 8.75 37.5  0 8.75 36.25  0 8.75 37.5  0 10 37.5  0 8.75 35  0 10 35  0 10 36.25  3.75 8.75 36.25  5 8.75 36.25  5 8.75 37.5  3.75 8.75 37.5  6.25 8.75 36.25  7.5 8.75 36.25  7.5 8.75 37.5  7.5 10 37.5  6.25 8.75 37.5  1.25 1.25 38.75  2.5 1.25 38.75  2.5 2.5 38.75  2.5 2.5 40  1.25 0 38.75  2.5 0 38.75  2.5 0 40  2.5 1.25 40  0 0 38.75  0 0 40  1.25 1.25 40  1.25 0 40  1.25 2.5 38.75  0 1.25 38.75  0 1.25 40  0 2.5 40  1.25 2.5 40  0 2.5 38.75  3.75 1.25 38.75  5 1.25 38.75  5 2.5 38.75  5 2.5 40  3.75 0 38.75  5 0 38.75  5 0 40  5 1.25 40  3.75 1.25 40  3.75 0 40  3.75 2.5 38.75  3.75 2.5 40  6.25 1.25 38.75  7.5 1.25 38.75  7.5 2.5 38.75  7.5 2.5 40  6.25 0 38.75  7.5 0 38.75  7.5 0 40  7.5 1.25 40  6.25 1.25 40  6.25 0 40  6.25 2.5 38.75  6.25 2.5 40  1.25 3.75 38.75  2.5 3.75 38.75  2.5 5 38.75  2.5 5 40  2.5 3.75 40  1.25 3.75 40  1.25 5 38.75  0 3.75 38.75  0 3.75 40  0 5 40  1.25 5 40  0 5 38.75  3.75 3.75 38.75  5 3.75 38.75  5 5 38.75  5 5 40  5 3.75 40  3.75 3.75 40  3.75 5 38.75  3.75 5 40  6.25 3.75 38.75  7.5 3.75 38.75  7.5 5 38.75  7.5 5 40  7.5 3.75 40  6.25 3.75 40  6.25 5 38.75  6.25 5 40  1.25 6.25 38.75  2.5 6.25 38.75  2.5 7.5 38.75  2.5 7.5 40  2.5 6.25 40  1.25 6.25 40  1.25 7.5 38.75  0 6.25 38.75  0 6.25 40  0 7.5 40  1.25 7.5 40  0 7.5 38.75  3.75 6.25 38.75  5 6.25 38.75  5 7.5 38.75  5 7.5 40  5 6.25 40  3.75 6.25 40  3.75 7.5 38.75  3.75 7.5 40  6.25 6.25 38.75  7.5 6.25 38.75  7.5 7.5 38.75  7.5 7.5 40  7.5 6.25 40  6.25 6.25 40  6.25 7.5 38.75  6.25 7.5 40  1.25 8.75 38.75  2.5 8.75 38.75  2.5 8.75 40  2.5 10 40  1.25 8.75 40  0 8.75 38.75  0 8.75 40  0 10 40  1.25 10 40  0 10 38.75  3.75 8.75 38.75  5 8.75 38.75  5 8.75 40  5 10 40  3.75 8.75 40  3.75 10 40  6.25 8.75 38.75  7.5 8.75 38.75  7.5 8.75 40  7.5 10 40  6.25 8.75 40  6.25 10 40  1.25 1.25 41.25  2.5 1.25 41.25  2.5 2.5 41.25  2.5 2.5 42.5  1.25 0 41.25  2.5 0 41.25  2.5 0 42.5  2.5 1.25 42.5  0 0 41.25  0 0 42.5  1.25 1.25 42.5  1.25 0 42.5  1.25 2.5 41.25  0 1.25 41.25  0 1.25 42.5  0 2.5 42.5  1.25 2.5 42.5  0 2.5 41.25  3.75 1.25 41.25  5 1.25 41.25  5 2.5 41.25  5 2.5 42.5  3.75 0 41.25  5 0 41.25  5 0 42.5  5 1.25 42.5  3.75 1.25 42.5  3.75 0 42.5  3.75 2.5 41.25  3.75 2.5 42.5  6.25 1.25 41.25  7.5 1.25 41.25  7.5 2.5 41.25  7.5 2.5 42.5  6.25 0 41.25  7.5 0 41.25  7.5 0 42.5  7.5 1.25 42.5  6.25 1.25 42.5  6.25 0 42.5  6.25 2.5 41.25  6.25 2.5 42.5  1.25 3.75 41.25  2.5 3.75 41.25  2.5 5 41.25  2.5 5 42.5  2.5 3.75 42.5  1.25 3.75 42.5  1.25 5 41.25  0 3.75 41.25  0 3.75 42.5  0 5 42.5  1.25 5 42.5  0 5 41.25  3.75 3.75 41.25  5 3.75 41.25  5 5 41.25  5 5 42.5  5 3.75 42.5  3.75 3.75 42.5  3.75 5 41.25  3.75 5 42.5  6.25 3.75 41.25  7.5 3.75 41.25  7.5 5 41.25  7.5 5 42.5  7.5 3.75 42.5  6.25 3.75 42.5  6.25 5 41.25  6.25 5 42.5  1.25 6.25 41.25  2.5 6.25 41.25  2.5 7.5 41.25  2.5 7.5 42.5  2.5 6.25 42.5  1.25 6.25 42.5  1.25 7.5 41.25  0 6.25 41.25  0 6.25 42.5  0 7.5 42.5  1.25 7.5 42.5  0 7.5 41.25  3.75 6.25 41.25  5 6.25 41.25  5 7.5 41.25  5 7.5 42.5  5 6.25 42.5  3.75 6.25 42.5  3.75 7.5 41.25  3.75 7.5 42.5  6.25 6.25 41.25  7.5 6.25 41.25  7.5 7.5 41.25  7.5 7.5 42.5  7.5 6.25 42.5  6.25 6.25 42.5  6.25 7.5 41.25  6.25 7.5 42.5  1.25 8.75 41.25  2.5 8.75 41.25  2.5 10 41.25  2.5 10 42.5  2.5 8.75 42.5  1.25 8.75 42.5  1.25 10 41.25  0 8.75 41.25  0 8.75 42.5  0 10 42.5  1.25 10 42.5  0 10 41.25  3.75 8.75 41.25  5 8.75 41.25  5 10 41.25  5 10 42.5  5 8.75 42.5  3.75 8.75 42.5  3.75 10 41.25  3.75 10 42.5  6.25 8.75 41.25  7.5 8.75 41.25  7.5 10 41.25  7.5 10 42.5  7.5 8.75 42.5  6.25 8.75 42.5  6.25 10 41.25  6.25 10 42.5  8.75 8.75 41.25  8.75 8.75 42.5  8.75 10 42.5  10 10 42.5  8.75 10 41.25  1.25 11.25 41.25  2.5 11.25 41.25  2.5 11.25 42.5  2.5 12.5 42.5  1.25 11.25 42.5  0 11.25 41.25  0 11.25 42.5  0 12.5 42.5  0 11.25 40  0 12.5 40  0 12.5 41.25  3.75 11.25 41.25  5 11.25 41.25  5 11.25 42.5  5 12.5 42.5  3.75 11.25 42.5  6.25 11.25 41.25  7.5 11.25 41.25  6.25 11.25 42.5  8.75 11.25
[...]
<PointData  Vectors="u"> 
<DataArray  type="Float64"  Name="u"  NumberOfComponents="3" format="ascii">1.9999999999825837e+02 5.1165293590179823e-10 1.3023954958716935e-10  1.9999999999826690e+02 1.7064630100042491e-11 -2.2846967171660018e-11  1.9999999999794997e+02 -6.9003889831373149e-11 -1.6270670790877872e-10  1.9999999999899572e+02 -5.5130995335013719e-11 -1.0850967435015688e-10  1.9999999999821188e+02 1.2212394156561562e-10 1.1219113057312763e-10  2.0000000000057983e+02 6.2347681763767123e-10 1.3687314493562662e-10  1.9999999999907592e+02 -7.6195230250276721e-11 -1.1910486766150459e-10  1.9999999999905876e+02 3.0835002748081948e-11 1.2162526167172800e-11  1.9999999999895613e+02 -2.9826191102858166e-10 2.8358250195447454e-11  1.9999999999996467e+02 -3.4015035632867989e-11 -2.2138007200433627e-11  1.9999999999971809e+02 -1.1699926295542751e-10 -1.6534462858335182e-11  2.0000000000058512e+02 1.9952785022049116e-10 1.5601327878816427e-10  1.9999999999901635e+02 3.6387323211745385e-11 -3.7712018582836552e-11  1.9999999999908704e+02 -8.0994262396373163e-11 -1.3251277046536207e-10  1.9999999999646994e+02 5.8711860277892630e-10 1.0766493372621465e-10  1.9999999999639542e+02 -1.2766866449916667e-11 2.5068800411660622e-11  1.9999999999610154e+02 -9.1717252358570825e-11 -1.0392995516880040e-10  1.9999999999716317e+02 -1.3979520767752159e-10 -1.1535909323668515e-10  1.9999999999647738e+02 1.4427029795476295e-10 1.1570992807870412e-10  1.9999999999712128e+02 1.5602406654334253e-11 -1.4033536231333087e-10  1.9999999999719111e+02 1.7328783736473817e-11 -7.9302231541199164e-11  1.9999999999726299e+02 7.2681229820942915e-11 -1.1156271923711405e-10  1.9999999999532159e+02 -7.4880455542698997e-11 -6.7363191574361493e-11  1.9999999999539745e+02 -3.2186946031326973e-11 -7.0718100040250807e-11  1.9999999999538448e+02 -1.3923679434588723e-10 -3.6263062248583183e-11  1.9999999999522802e+02 -5.6109328380391216e-10 -2.6700702896140172e-13  1.9999999999467983e+02 6.4414804396802753e-10 6.9526288033232492e-11  1.9999999999444640e+02 -3.4616920105937814e-11 9.5219971500503360e-11  1.9999999999470185e+02 1.2669519546986300e-10 8.8103887465625692e-11  1.9999999999470182e+02 1.2563663095958627e-10 -4.3852506077126671e-11  1.9999999999447996e+02 1.7751484155400562e-10 7.6875516316521930e-13  1.9999999999533037e+02 -2.0154278752443773e-10 4.1047843681995634e-11  1.9999999999542624e+02 1.1485326928396797e-10 -1.5362230030622634e-10  1.9999999999822748e+02 3.5276403540076172e-11 -9.6960532101332847e-11  1.9999999999811720e+02 -2.3017388919524891e-10 -2.5219104453988165e-10  1.9999999999902036e+02 -5.4812302802625491e-11 -3.5272948305141345e-11  1.9999999999817510e+02 1.7932907440147471e-10 1.3315321058203685e-10  1.9999999999906640e+02 -1.2586389710463340e-10 -8.2613947082945391e-11  2.0000000000003544e+02 -5.0655700833550655e-11 -9.6574596282682783e-11  1.9999999999963819e+02 -6.5454952389650698e-11 -3.7755146274866957e-11  2.0000000000058310e+02 1.7710284777593875e-10 1.1386744253842409e-10  1.9999999999905646e+02 -6.0484162441212781e-11 -3.0310358004616588e-12  1.9999999999723343e+02 -7.6464070753007402e-11 -2.1766364216177502e-10  1.9999999999720319e+02 -6.5545414237041967e-11 -7.7887858430724545e-11  1.9999999999633465e+02 1.0308777450321813e-11 -4.5567418245956281e-11  1.9999999999648122e+02 1.3178020714848464e-10 9.7862321158559616e-11  1.9999999999726543e+02 2.4169067169420025e-11 -3.3167773660970120e-11  1.9999999999445151e+02 -9.5047016463964553e-11 -6.7250151626843005e-12  1.9999999999442534e+02 -1.4770229604417165e-11 1.1893560769445091e-10  1.9999999999537164e+02 -2.3163346647772637e-11 -1.2151867597858292e-10  1.9999999999466709e+02 1.8810012007233081e-10 -1.2793324028930530e-11  1.9999999999443622e+02 -8.6822216680119781e-12 -1.0030476253476009e-11  1.9999999999466183e+02 1.4460440788266695e-10 8.7644048172644347e-11  1.9999999999447391e+02 3.0731068465636591e-11 3.8422228045111712e-11  1.9999999999533236e+02 -7.7498803386669705e-11 -1.8884151967999281e-10  1.9999999999534603e+02 -1.9439794244731452e-10 -8.5730195331354621e-11  1.9999999999543076e+02 3.2081037001522521e-11 -2.7568200101814097e-11  1.9999999999904983e+02 -1.1706405894949799e-10 -7.4520485628312196e-11  1.9999999999898839e+02 -4.6491242818902052e-11 -3.7228447142952460e-11  2.0000000000002461e+02 -5.5459067164580197e-11 -1.1185028062540791e-10  2.0000000000056275e+02 1.8812287064286061e-10 1.0319337407592730e-10  1.9999999999441783e+02 -1.1381734137105346e-10 -1.1087271613982037e-10  1.9999999999536226e+02 -1.0024801290898466e-10 -8.7957908816467002e-11  1.9999999999444884e+02 1.9265581621243294e-11 5.5812068837827568e-11  1.9999999999466894e+02 1.1467244463330520e-10 1.0090871063624999e-10  1.9999999999536945e+02 -1.0218055024279013e-10 -2.4050462875438640e-10  1.9999999999905248e+02 -8.2764164941757878e-11 -8.8174458458806176e-11  1.9999999999820901e+02 7.7846547828840478e-11 -2.3346662397838100e-10  1.9999999999818795e+02 9.0140082658796361e-11 -3.7936930869461050e-11  1.9999999999818365e+02 1.0482283173617733e-10 1.6743631918923754e-10  1.9999999999904071e+02 -4.1230392827095697e-10 -4.9680281611329580e-11  1.9999999999821716e+02 3.9640462300077500e-11 -2.8777963142997504e-11  1.9999999999821850e+02 5.3848578490291661e-10 1.5114289621597063e-10  1.9999999999820517e+02 -3.6401979853376470e-11 -3.2808707221333147e-11  2.0000000000004619e+02 7.1812833091448212e-11 -7.0362142032582811e-11  2.0000000000053663e+02 5.5231076091458321e-10 1.6658893736230293e-10  1.9999999999909508e+02 -5.7795933639653199e-11 -1.7150226474353414e-10  1.9999999999903844e+02 8.1833118363253025e-11 -5.0799631118647209e-11  1.9999999999899791e+02 -1.2505115169617598e-11 -1.3965776822443903e-10  1.9999999999957970e+02 -6.1841185963151278e-11 -5.8023076865984291e-11  1.9999999999991846e+02 -3.9003992682352427e-11 -1.4129314923628053e-11  2.0000000000059794e+02 1.7393375160381968e-10 1.1616932171286118e-10  1.9999999999902226e+02 3.5586847822123165e-11 -4.5455220779340005e-11  2.0000000000000378e+02 -5.4521282942569826e-11 -6.6473844937093503e-11  1.9999999999718298e+02 -3.8242240591076966e-11 -8.0485164739630651e-11  1.9999999999621241e+02 7.3177966688777946e-12 -5.6513376391020306e-11  1.9999999999624117e+02 7.9055937811888573e-11 -4.2773922555811954e-11  1.9999999999650203e+02 8.4509466416855941e-11 1.2157744353134519e-10  1.9999999999720549e+02 -3.9183595208175605e-10 -7.3160691565316958e-11  1.9999999999625973e+02 7.1394184924991809e-11 -2.3872085228027547e-11  1.9999999999647051e+02 5.8789270581379732e-10 1.2193003041123095e-10  1.9999999999636623e+02 -1.0677303664329560e-10 -4.8483153513891220e-12  1.9999999999720816e+02 4.9619333312366449e-12 -1.1220139622300376e-10  1.9999999999725992e+02 4.5639768119132244e-11 -7.9682674213182340e-11  1.9999999999712867e+02 -1.1087374224235793e-11 -2.0738044652790604e-10  1.9999999999724531e+02 3.5648062570006160e-11 -1.3337065764844457e-10  1.9999999999534921e+02 -3.4946501825116748e-11 -7.7573767537186399e-11  1.9999999999434010e+02 -1.0406505174344378e-10 -1.2536175649358805e-10  1.9999999999452984e+02 -2.4996409412468303e-11 -5.4254288021720749e-11  1.9999999999467377e+02 1.0972729967630027e-10 1.1892295218314938e-10  1.9999999999536533e+02 -4.5937708778995852e-10 2.3094349016856291e-11  1.9999999999451813e+02 9.7610711267602069e-11 1.5328628527990949e-11  1.9999999999465396e+02 5.6892397702839096e-10 1.1022188129390967e-10  1.9999999999446300e+02 -3.7976474041070404e-11 5.2365587575747932e-11  1.9999999999529007e+02 -1.4553454009877013e-11 -1.5708771494241593e-10  1.9999999999538616e+02 2.7327793466258709e-11 -4.6574998721933838e-11  1.9999999999522748e+02 8.4241578901606096e-13 -2.0609938512366900e-10  1.9999999999538687e+02 5.3549947910685407e-11 -4.7278591786985998e-11  1.9999999999894126e+02 -5.4890264781226692e-11 -9.3994198188384087e-11  1.9999999999808679e+02 -1.5294559556371123e-10 -1.9644650295602287e-10  1.9999999999818701e+02 -1.9714448294223848e-11 -6.3485710987692397e-11  1.9999999999819275e+02 1.9535143570524939e-10 1.3676550479257740e-10  1.9999999999815662e+02 -2.2806671820356742e-11 -1.0141370420283445e-10  1.9999999999900615e+02 -1.0519822673996255e-10 -1.9237063752358775e-10  1.9999999999901729e+02 -1.8351436534635231e-10 -9.7668437019179791e-11  1.9999999999964840e+02 -3.8502899328836459e-11 -2.0145415805617797e-11  2.0000000000009607e+02 -5.9976823052007873e-11 -9.6597685991730549e-11  2.0000000000055741e+02 1.7418214837504941e-10 9.9006404842405538e-11  1.9999999999898517e+02 5.3206425772442809e-11 -1.2356976840341470e-11  2.0000000000002538e+02 -4.7675400953593117e-11 -2.6920883252279639e-11  1.9999999999721803e+02 -5.3606960860329293e-11 -7.7123989272901925e-11  1.9999999999622460e+02 -7.4469535778397480e-11 -1.1884915541881730e-10  1.9999999999637032e+02 1.6761504749577970e-11 -8.5928877260824599e-11  1.9999999999645760e+02 1.3486954853596927e-10 1.0183253902054515e-10  1.9999999999634224e+02 1.0901093291417856e-11 -5.4142795526676111e-11  1.9999999999719452e+02 -5.4600508061695938e-11 -2.0393754757626722e-10  1.9999999999717537e+02 -1.5058416897675530e-10 -9.7062686641292021e-11  1.9999999999723462e+02 5.7672693130364644e-11 -3.1102981726562172e-11  1.9999999999533756e+02 -3.8249084163909882e-11 -1.0621761325428342e-10  1.9999999999442565e+02 -4.3247866105903231e-11 -1.2009334391187408e-10  1.9999999999446163e+02 6.8539760150971920e-11 -3.8800472428123274e-11  1.9999999999469156e+02 1.4091632346647891e-10 8.7148649437802458e-11  1.9999999999449994e+02 1.5707732255474757e-11 6.8093308693871523e-12  1.9999999999534108e+02 -6.5367297414170018e-11 -1.9377510565595395e-10  1.9999999999536740e+02 -1.4877457015604967e-10 -1.5748230407702672e-10  1.9999999999544295e+02 3.2157723807721117e-11 4.0416986112696708e-13  1.9999999999895766e+02 -4.8760621782722625e-11 -8.6272066997755756e-11  1.9999999999902730e+02 -1.1867908423798696e-10 -1.7315289937867891e-10  1.9999999999954113e+02 -1.6324835471793485e-11 -1.5924369054287088e-11  1.9999999999998931e+02 -4.1499022769068353e-11 -6.5224899934131627e-11  2.0000000000057651e+02 1.3031981958676636e-10 1.0609594624318249e-10  2.0000000000007321e+02 -5.9698644487430022e-11 -2.0918495845252629e-11  1.9999999999540327e+02 -5.3795166293059828e-11 -9.4199061026888672e-11  1.9999999999443483e+02 -7.5128881621669267e-11 -1.6910045870387694e-10  1.9999999999905432e+02 -1.1492708282647010e-10 -1.1826014855111888e-10  1.9999999999818482e+02 6.0039540942640473e-11 -2.2211177268837095e-10  1.9999999999817325e+02 1.0187077878570821e-10 -8.0911891782410865e-11  1.9999999999822441e+02 1.0006677827314300e-10 1.4886965978497348e-10  1.9999999999899060e+02 -4.0450878152721134e-10 -3.6340194801788936e-11  1.9999999999824971e+02 4.1368935557474975e-11 -4.0245887820346841e-11  1.9999999999822350e+02 5.4158386221599415e-10 1.2549574026688479e-10  1.9999999999822930e+02 -7.2062562947481987e-11 -5.9298311230010189e-11  2.0000000000007830e+02 7.4948548044173046e-11 -5.7926898417235807e-11  2.0000000000051168e+02 5.0342110227927317e-10 1.2488238789134514e-10  1.9999999999910165e+02 -1.1590409609461206e-10 -2.0638893798623123e-10  1.9999999999904426e+02 4.3548583529471153e-11 -6.5978666495790275e-11  1.9999999999904273e+02 -6.0168097849956880e-11 -2.2530187315291070e-10  1.9999999999961344e+02 -1.3055875933277998e-10 -8.7930079841109611e-11  1.9999999999993008e+02 -5.4199435739284434e-11 -3.1884483209272508e-11  2.0000000000055655e+02 1.6551801120923591e-10 1.3169398028635784e-10  1.9999999999898657e+02 1.5266639798126780e-11 -2.8015100204181669e-11  2.0000000000000679e+02 -4.3021429273632589e-11 -8.2958728183685103e-11  1.9999999999718423e+02 -6.7466481011195533e-11 -8.1817881718729679e-11  1.9999999999616358e+02 1.2276837043291942e-11 -1.5553724052770920e-10  1.9999999999630697e+02 3.9639097845723463e-11 1.5461749391759126e-12  1.9999999999650791e+02 9.7255769732255281e-11 1.3241279037637447e-10  1.9999999999717878e+02 -4.5707325142366842e-10 -4.2653217162945971e-11  1.9999999999632820e+02 -3.5337970520652822e-12 -4.8458993952659472e-11  1.9999999999648122e+02 5.1500913135415744e-10 1.1310786966183937e-10  1.9999999999634841e+02 -4.5756361025760561e-11 -4.8503712497825266e-12  1.9999999999714299e+02 -2.2136178234428076e-11 -1.8267105441694215e-10  1.9999999999720998e+02 6.1176367187877783e-11 -9.2745135620008103e-11  1.9999999999709831e+02 -4.1519674873246328e-11 -1.8245650900438773e-10  1.9999999999726737e+02 3.9077815760081228e-11 -1.0879163520255438e-10  1.9999999999537144e+02 -5.6075821209220699e-11 -8.9444859679905819e-11  1.9999999999435067e+02 -1.7175282956298950e-11 -1.3628771522972613e-10  1.9999999999449636e+02 5.4763376422099523e-11 -9.3393321996837028e-12  1.9999999999465913e+02 9.5245743027736670e-11 1.3447837248914705e-10  1.9999999999534683e+02 -4.2672306868075707e-10 -6.5701688458199092e-11  1.9999999999446879e+02 7.1945139873936092e-11 -5.6457847677806214e-12  1.9999999999466894e+02 5.4896411548853831e-10 1.1323130112445937e-10  1.9999999999443841e+02 -6.8797364587988725e-11 6.7521209569172533e-11  1.9999999999534592e+02 -1.6644398410038903e-11 -1.8472249301706491e-10  1.9999999999538932e+02 -1.4316921172167511e-13 -4.2140390249294919e-11  1.9999999999519699e+02 -3.0869033769708268e-11 -2.2190443009100245e-10  1.9999999999538485e+02 5.2152661853186628e-11 -4.5819793564886209e-11  1.9999999999894783e+02 -6.4664192578460627e-11 -9.2489887939094506e-11  1.9999999999811757e+02 -1.6997448885797788e-10 -2.1035230343875363e-10  1.9999999999816163e+02 1.3280684293201623e-11 -2.1118323915845206e-12  1.9999999999820614e+02 1.7409224805410908e-10 1.2687613808161384e-10  1.9999999999816615e+02 1.7632498377567055e-11 -6.9919083164980808e-11  1.9999999999901533e+02 -5.7007553813140768e-11 -1.8222575214427982e-10  1.9999999999903690e+02 -1.4257364032771848e-10 -1.3939296518805553e-10  1.9999999999962338e+02 -2.4747413640917660e-11 -6.7365301201909415e-11  2.0000000000006841e+02 -1.8227241597637868e-11 -7.8759598582642806e-11  2.0000000000057153e+02 1.7303893015721270e-10 1.2379963707205065e-10  1.9999999999895462e+02 6.6657713916697165e-11 2.6251876386979680e-11  1.9999999999999892e+02 -4.1736098926413261e-12 -5.9718861379602098e-11  1.9999999999718710e+02 -4.0827322759765284e-11 -5.5982078473636873e-11  1.9999999999620866e+02 -8.8077925581085274e-11 -1.2182463625799227e-10  1.9999999999637436e+02 7.8338033052138131e-11 -1.2983736410548349e-11  1.9999999999645257e+02 1.0961660190035553e-10 9.9759020825026495e-11  1.9999999999638365e+02 7.7200724884835861e-12 1.5981265065841230e-11  1.9999999999716178e+02 -5.5539135943673409e-11 -1.7158135520875537e-10  1.9999999999716280e+02 -1.4956515998528296e-10 -9.6599755115454072e-11  1.9999999999723045e+02 2.4297156685647308e-11 -1.0672284473121376e-11  1.9999999999535905e+02 -7.3587010035167113e-11 -9.1161510554509433e-11  1.9999999999449716e+02 -5.9268335576455740e-11 -1.2063341094843580e-10  1.9999999999452325e+02 6.7733577644848213e-11 1.9288855973636385e-11  1.9999999999468363e+02 1.1773554827002767e-10 7.0004964326007441e-11  1.9999999999451714e+02 5.7274390651945477e-11 1.5983777845229182e-11  1.9999999999531650e+02 -6.3768813052866273e-11 -1.2758245384188755e-10  1.9999999999534941e+02 -1.0080486110687443e-10 -9.9906346051749445e-11  1.9999999999545145e+02 3.7599983530904358e-11 -2.3576688358646849e-11  1.9999999999896860e+02 -3.3748524550761836e-11 -8.4066150190092284e-11  1.9999999999813622e+02 -1.8526659490429133e-10 -2.2434941832295622e-10  1.9999999999815867e+02 -3.6760063424851794e-12 -8.0596313662393719e-11  1.9999999999818391e+02 1.4997631448460440e-10 1.1115858013924439e-10  1.9999999999902110e+02 -1.1104849973636149e-10 -2.3011821904232258e-10  1.9999999999963558e+02 -4.0481563073248255e-11 -6.9902214961614934e-11  2.0000000000005554e+02 -7.0767602568342606e-11 -9.0882927838693497e-11  2.0000000000057463e+02 1.4837752934018676e-10 1.4037022511370019e-10  1.9999999999997590e+02 -8.6585288634642307e-11 -8.2434258099695849e-11  1.9999999999714376e+02 -3.0109767216957191e-11 -1.0764683899639738e-10  1.9999999999713165e+02 -1.0610453111091307e-10 -1.9132260155948309e-10  1.9999999999536882e+02 -5.4842166157672733e-11 -1.0524207512727932e-10  1.9999999999441152e+02 -7.7513539423526432e-11 -1.2835702292602010e-10  1.9999999999448494e+02 -1.2875674562390363e-12 -3.4284350088071607e-11  1.9999999999465624e+02 8.8640284233188857e-11 8.0027370539381007e-11  1.9999999999536149e+02 -8.1342215613072982e-11 -2.2859442968150245e-10  1.9999999999906373e+02 -1.0531155864045931e-10 -1.4840428181453918e-10  1.9999999999816731e+02 6.5028333678635539e-11 -2.6504833035964726e-10  1.9999999999813954e+02 1.0018964401716310e-10 -6.9269169775397040e-11  1.9999999999823996e+02 1.0772826233221178e-10 1.5412215262396367e-10  1.9999999999900768e+02 -4.4301738238487322e-10 -1.2103991802148115e-10  1.9999999999820432e+02 1.8444892343094032e-11 -8.6807429477189914e-11  1.9999999999822671e+02 5.6293302976798162e-10 1.5293119968131396e-10  1.9999999999822899e+02 -1.4930125724598770e-11 -3.8360359684208186e-11  1.9999999999998897e+02 2.8436566246612386e-11 -1.3889136572730414e-10  2.0000000000054376e+02 5.7544453338197524e-10 1.4280583576827556e-10  1.9999999999910051e+02 -1.3400697046005995e-10 -1.8928862751946662e-10  1.9999999999906598e+02 1.0177567283855818e-10 -3.4149837818994849e-11  1.9999999999904739e+02 -9.4959768748196182e-11 -1.6493146382593120e-10  1.9999999999957998e+02 -1.2629305947823612e-10 -1.5601255359672006e-10  1.9999999999996442e+02 -8.8340971527061663e-11 -3.7946264964957913e-11  2.0000000000058827e+02 2.0472684747182516e-10 1.0729216138843883e-10  1.9999999999902622e+02 6.0925344847508877e-11 -1.1247375776431857e-10  2.0000000000002694e+02 -7.1300570233837169e-11 -1.5093307977114850e-10  1.9999999999718622e+02 -9.2721393447988793e-11 -1.0091496402316623e-10  1.9999999999621099e+02 -1.2521501337500647e-11 -1.2023115018123425e-10  1.9999999999634699e+02 7.0978016066345664e-11 -8.3184933554730895e-11  1.9999999999652752e+02 8.9959715955807833e-11 1.1781600767896333e-10  1.9999999999723127e+02 -3.7942485209769794e-10 -7.9391915000682848e-11  1.9999999999631603e+02 4.5419247040374842e-11 -2.6593501018541693e-11  1.9999999999647682e+02 5.4478103114206355e-10 9.4669467205103185e-11  1.9999999999640050e+02 -1.2397012305372953e-10 2.3185155992449972e-11  1.9999999999717215e+02 -1.9963952031119554e-11 -1.4670479836281999e-10  1.9999999999728794e+02 4.9286599433962033e-11 -8.5239293113178464e-11  1.9999999999709726e+02 6.4302174422716436e-12 -2.1817900960794878e-10  1.9999999999721786e+02 1.0562569636395213e-10 -6.4524389703761007e-11  1.9999999999540242e+02 -5.9883951473281783e-11 -5.9478437875872813e-11  1.9999999999433743e+02 -1.8647209470944586e-11 -1.3050237455355798e-10  1.9999999999444304e+02 4.0868530652110293e-11 1.2236767007606580e-12  1.9999999999468642e+02 8.2870662587305267e-11 1.1593229446303801e-10  1.9999999999539816e+02 -4.6196489882732728e-10 -5.9545561456388069e-11  1.9999999999443824e+02 1.0865931822322164e-10 5.5169532440668101e-12  1.9999999999466306e+02 5.4942622851969463e-10 6.5354803165440297e-11  1.9999999999442446e+02 -4.3578622574843298e-11 2.8399468129363624e-12  1.9999999999532844e+02 -1.7033333706252901e-11 -2.1686269288926361e-10  1.9999999999536408e+02 9.9794251511035301e-11 -1.4185267178412416e-10  1.9999999999524732e+02 5.0963389603368264e-12 -1.8024599759285354e-10  1.9999999999538491e+02 3.7324581815238511e-11 -1.2596443588961396e-10  1.9999999999895283e+02 -3.9614898385037288e-11 -8.6084833075053826e-11  1.9999999999811831e+02 -1.6029307646167311e-10 -2.6243600126445733e-10  1.9999999999813033e+02 2.3078121410709670e-11 -3.1588924154413531e-11  1.9999999999817155e+02 1.7617219154530887e-10 1.0471447882998401e-10  1.9999999999819187e+02 2.0163885433758703e-11 -8.6475202201085569e-11  1.9999999999900925e+02 -7.8639643296847146e-11 -2.3313403825038051e-10  1.9999999999904642e+02 -1.1080579705773890e-10 -1.3067704957275312e-10  1.9999999999958