<?xml version="1.0"?>
<VTKFile type="UnstructuredGrid"  version="0.1"  >
<UnstructuredGrid>
<Piece  NumberOfPoints="3936" NumberOfCells="19236">
<Points>
<DataArray  type="Float64"  NumberOfComponents="3"  format="ascii">12.5 27.5 37.5  12.5 28.75 38.75  12.5 27.5 38.75  11.25 28.75 38.75  11.25 27.5 38.75  12.5 27.5 40  12.5 28.75 40  11.25 28.75 40  11.25 27.5 40  12.5 28.75 41.25  11.25 28.75 41.25  12.5 27.5 41.25  11.25 27.5 41.25  12.5 27.5 42.5  12.5 28.75 42.5  12.5 30 42.5  10 27.5 42.5  11.25 28.75 42.5  11.25 27.5 42.5  10 28.75 42.5  10 30 42.5  11.25 30 42.5  10 28.75 43.75  8.75 28.75 43.75  10 30 43.75  10 30 45  10 27.5 43.75  8.75 27.5 43.75  10 27.5 45  10 28.75 45  8.75 28.75 45  8.75 27.5 45  7.5 30 45  8.75 30 45  11.25 28.75 43.75  12.5 28.75 43.75  12.5 30 43.75  12.5 30 45  11.25 27.5 43.75  12.5 27.5 43.75  12.5 27.5 45  12.5 28.75 45  11.25 28.75 45  11.25 27.5 45  11.25 30 43.75  11.25 30 45  11.25 31.25 43.75  12.5 31.25 43.75  11.25 31.25 45  10 28.75 46.25  8.75 28.75 46.25  10 30 46.25  10 30 47.5  10 27.5 46.25  8.75 27.5 46.25  10 27.5 47.5  10 28.75 47.5  7.5 27.5 47.5  8.75 28.75 47.5  8.75 27.5 47.5  8.75 30 46.25  7.5 28.75 47.5  7.5 30 47.5  8.75 30 47.5  7.5 30 46.25  11.25 28.75 46.25  12.5 28.75 46.25  12.5 30 46.25  12.5 30 47.5  11.25 27.5 46.25  12.5 27.5 46.25  12.5 27.5 47.5  12.5 28.75 47.5  11.25 28.75 47.5  11.25 27.5 47.5  11.25 30 46.25  11.25 30 47.5  8.75 31.25 46.25  10 31.25 46.25  10 31.25 47.5  8.75 31.25 47.5  11.25 31.25 46.25  12.5 31.25 46.25  12.5 31.25 47.5  12.5 32.5 47.5  11.25 31.25 47.5  8.75 28.75 48.75  10 28.75 48.75  10 30 48.75  10 30 50  8.75 30 48.75  7.5 30 50  8.75 30 50  11.25 28.75 48.75  12.5 28.75 48.75  12.5 30 48.75  12.5 30 50  11.25 30 48.75  11.25 30 50  13.75 28.75 48.75  13.75 30 48.75  13.75 30 50  15 30 50  8.75 31.25 48.75  10 31.25 48.75  10 31.25 50  10 32.5 50  8.75 31.25 50  7.5 31.25 50  7.5 32.5 50  8.75 32.5 50  11.25 31.25 48.75  12.5 31.25 48.75  12.5 31.25 50  12.5 32.5 50  11.25 31.25 50  11.25 32.5 50  13.75 31.25 48.75  13.75 31.25 50  15 31.25 50  15 32.5 50  13.75 32.5 50  17.5 27.5 27.5  18.75 28.75 28.75  18.75 27.5 28.75  18.75 27.5 27.5  20 27.5 27.5  20 27.5 28.75  20 27.5 30  17.5 27.5 28.75  17.5 27.5 30  18.75 27.5 30  21.25 28.75 28.75  21.25 27.5 28.75  21.25 27.5 27.5  22.5 27.5 27.5  22.5 27.5 28.75  22.5 27.5 30  21.25 27.5 30  21.25 28.75 31.25  21.25 27.5 31.25  22.5 28.75 31.25  22.5 27.5 31.25  22.5 27.5 32.5  22.5 28.75 32.5  22.5 30 32.5  20 27.5 31.25  20 27.5 32.5  21.25 28.75 32.5  21.25 27.5 32.5  23.75 28.75 31.25  23.75 28.75 30  23.75 27.5 30  25 27.5 30  23.75 27.5 31.25  25 27.5 31.25  25 27.5 32.5  23.75 28.75 32.5  23.75 27.5 32.5  15 27.5 32.5  15 28.75 33.75  15 27.5 33.75  13.75 28.75 33.75  13.75 27.5 33.75  13.75 27.5 32.5  15 27.5 35  12.5 27.5 35  13.75 27.5 35  16.25 28.75 33.75  16.25 27.5 33.75  16.25 27.5 32.5  17.5 27.5 32.5  17.5 28.75 33.75  17.5 27.5 33.75  17.5 27.5 35  16.25 28.75 35  16.25 27.5 35  18.75 28.75 33.75  18.75 27.5 33.75  18.75 27.5 32.5  20 28.75 33.75  20 27.5 33.75  20 27.5 35  20 28.75 35  18.75 28.75 35  18.75 27.5 35  21.25 28.75 33.75  22.5 28.75 33.75  21.25 27.5 33.75  22.5 27.5 33.75  22.5 27.5 35  22.5 28.75 35  21.25 28.75 35  21.25 27.5 35  23.75 28.75 33.75  23.75 27.5 33.75  25 27.5 33.75  25 27.5 35  23.75 28.75 35  23.75 27.5 35  25 28.75 35  25 30 35  13.75 28.75 36.25  13.75 27.5 36.25  15 28.75 36.25  15 27.5 36.25  15 27.5 37.5  15 28.75 37.5  15 30 37.5  12.5 27.5 36.25  13.75 27.5 37.5  12.5 28.75 36.25  16.25 28.75 36.25  16.25 27.5 36.25  17.5 28.75 36.25  17.5 27.5 36.25  17.5 27.5 37.5  17.5 28.75 37.5  17.5 30 37.5  16.25 28.75 37.5  16.25 27.5 37.5  16.25 30 37.5  18.75 28.75 36.25  20 28.75 36.25  18.75 27.5 36.25  20 27.5 36.25  20 27.5 37.5  20 28.75 37.5  20 30 37.5  18.75 28.75 37.5  18.75 27.5 37.5  18.75 30 37.5  21.25 28.75 36.25  22.5 28.75 36.25  21.25 27.5 36.25  22.5 27.5 36.25  22.5 27.5 37.5  22.5 28.75 37.5  22.5 30 37.5  21.25 28.75 37.5  21.25 27.5 37.5  23.75 28.75 36.25  23.75 27.5 36.25  25 27.5 36.25  25 27.5 37.5  23.75 28.75 37.5  23.75 27.5 37.5  25 28.75 37.5  25 30 37.5  23.75 30 37.5  15 28.75 38.75  13.75 28.75 38.75  13.75 27.5 38.75  15 27.5 38.75  15 27.5 40  15 28.75 40  15 30 40  13.75 28.75 40  13.75 27.5 40  16.25 28.75 38.75  17.5 28.75 38.75  17.5 30 38.75  17.5 30 40  16.25 27.5 38.75  17.5 27.5 38.75  17.5 27.5 40  17.5 28.75 40  16.25 28.75 40  16.25 27.5 40  16.25 30 40  18.75 28.75 38.75  20 28.75 38.75  20 30 38.75  20 30 40  18.75 27.5 38.75  20 27.5 38.75  20 27.5 40  20 28.75 40  18.75 28.75 40  18.75 27.5 40  18.75 30 38.75  18.75 30 40  21.25 28.75 38.75  22.5 28.75 38.75  22.5 30 38.75  22.5 30 40  21.25 27.5 38.75  22.5 27.5 38.75  22.5 27.5 40  22.5 28.75 40  21.25 28.75 40  21.25 27.5 40  21.25 30 40  23.75 28.75 38.75  25 28.75 38.75  25 30 38.75  25 30 40  23.75 27.5 38.75  25 27.5 38.75  25 27.5 40  25 28.75 40  23.75 28.75 40  23.75 27.5 40  23.75 30 38.75  23.75 30 40  26.25 28.75 38.75  18.75 31.25 38.75  23.75 31.25 38.75  13.75 28.75 41.25  15 28.75 41.25  15 30 41.25  15 30 42.5  13.75 27.5 41.25  15 27.5 41.25  15 27.5 42.5  15 28.75 42.5  13.75 28.75 42.5  13.75 27.5 42.5  13.75 30 42.5  16.25 28.75 41.25  17.5 28.75 41.25  17.5 30 41.25  17.5 30 42.5  16.25 27.5 41.25  17.5 27.5 41.25  17.5 27.5 42.5  17.5 28.75 42.5  16.25 28.75 42.5  16.25 27.5 42.5  16.25 30 41.25  16.25 30 42.5  18.75 28.75 41.25  20 28.75 41.25  20 30 41.25  20 30 42.5  18.75 27.5 41.25  20 27.5 41.25  20 27.5 42.5  20 28.75 42.5  18.75 28.75 42.5  18.75 27.5 42.5  18.75 30 41.25  18.75 30 42.5  21.25 28.75 41.25  22.5 28.75 41.25  22.5 30 41.25  22.5 30 42.5  21.25 27.5 41.25  22.5 27.5 41.25  22.5 27.5 42.5  22.5 28.75 42.5  21.25 28.75 42.5  21.25 27.5 42.5  21.25 30 41.25  21.25 30 42.5  23.75 28.75 41.25  25 28.75 41.25  25 30 41.25  25 30 42.5  23.75 27.5 41.25  25 27.5 41.25  25 27.5 42.5  25 28.75 42.5  23.75 28.75 42.5  23.75 27.5 42.5  23.75 30 41.25  23.75 30 42.5  26.25 28.75 41.25  16.25 31.25 41.25  17.5 31.25 41.25  17.5 31.25 42.5  17.5 32.5 42.5  16.25 31.25 42.5  18.75 31.25 41.25  18.75 31.25 42.5  21.25 31.25 41.25  13.75 28.75 43.75  15 28.75 43.75  15 30 43.75  15 30 45  13.75 27.5 43.75  15 27.5 43.75  15 27.5 45  15 28.75 45  13.75 28.75 45  13.75 27.5 45  13.75 30 43.75  13.75 30 45  16.25 28.75 43.75  17.5 28.75 43.75  17.5 30 43.75  17.5 30 45  16.25 27.5 43.75  17.5 27.5 43.75  17.5 27.5 45  17.5 28.75 45  16.25 28.75 45  16.25 27.5 45  16.25 30 43.75  16.25 30 45  18.75 28.75 43.75  20 28.75 43.75  20 30 43.75  20 30 45  18.75 27.5 43.75  20 27.5 43.75  20 27.5 45  20 28.75 45  18.75 28.75 45  18.75 27.5 45  18.75 30 43.75  18.75 30 45  21.25 28.75 43.75  22.5 28.75 43.75  22.5 30 43.75  22.5 30 45  21.25 27.5 43.75  22.5 27.5 43.75  22.5 27.5 45  22.5 28.75 45  21.25 28.75 45  21.25 27.5 45  21.25 30 43.75  21.25 30 45  23.75 28.75 43.75  23.75 27.5 43.75  25 27.5 43.75  25 27.5 45  23.75 28.75 45  23.75 27.5 45  25 28.75 45  25 30 45  23.75 30 43.75  25 30 43.75  23.75 30 45  13.75 31.25 43.75  13.75 31.25 45  16.25 31.25 43.75  17.5 31.25 43.75  17.5 31.25 45  17.5 32.5 45  16.25 31.25 45  18.75 31.25 43.75  20 31.25 43.75  20 31.25 45  20 32.5 45  18.75 31.25 45  21.25 31.25 43.75  21.25 31.25 45  13.75 28.75 46.25  15 28.75 46.25  15 30 46.25  15 30 47.5  13.75 27.5 46.25  15 27.5 46.25  15 27.5 47.5  15 28.75 47.5  13.75 28.75 47.5  13.75 27.5 47.5  13.75 30 46.25  13.75 30 47.5  16.25 28.75 46.25  17.5 28.75 46.25  17.5 30 46.25  17.5 30 47.5  16.25 27.5 46.25  17.5 27.5 46.25  17.5 27.5 47.5  17.5 28.75 47.5  16.25 28.75 47.5  16.25 27.5 47.5  16.25 30 46.25  16.25 30 47.5  18.75 28.75 46.25  20 28.75 46.25  20 30 46.25  20 30 47.5  18.75 27.5 46.25  20 27.5 46.25  20 27.5 47.5  20 28.75 47.5  18.75 28.75 47.5  18.75 27.5 47.5  18.75 30 46.25  18.75 30 47.5  21.25 28.75 46.25  22.5 28.75 46.25  22.5 30 46.25  22.5 30 47.5  21.25 27.5 46.25  22.5 27.5 46.25  22.5 27.5 47.5  22.5 28.75 47.5  21.25 28.75 47.5  21.25 27.5 47.5  21.25 30 46.25  21.25 30 47.5  23.75 28.75 46.25  25 28.75 46.25  25 30 46.25  25 30 47.5  23.75 27.5 46.25  25 27.5 46.25  25 27.5 47.5  25 28.75 47.5  23.75 28.75 47.5  23.75 27.5 47.5  23.75 30 47.5  13.75 31.25 46.25  15 31.25 46.25  15 31.25 47.5  15 32.5 47.5  13.75 31.25 47.5  16.25 31.25 46.25  17.5 31.25 46.25  17.5 32.5 46.25  17.5 32.5 47.5  17.5 31.25 47.5  16.25 31.25 47.5  16.25 32.5 47.5  18.75 31.25 46.25  20 31.25 46.25  20 32.5 46.25  20 32.5 47.5  20 31.25 47.5  18.75 31.25 47.5  18.75 32.5 47.5  21.25 31.25 46.25  21.25 31.25 47.5  15 28.75 48.75  15 30 48.75  16.25 28.75 48.75  17.5 28.75 48.75  17.5 30 48.75  17.5 30 50  16.25 30 48.75  16.25 30 50  18.75 28.75 48.75  20 28.75 48.75  20 30 48.75  20 30 50  18.75 30 48.75  18.75 30 50  21.25 28.75 48.75  22.5 28.75 48.75  22.5 30 48.75  22.5 30 50  21.25 30 48.75  21.25 30 50  23.75 28.75 48.75  15 31.25 48.75  15 32.5 48.75  16.25 31.25 48.75  17.5 31.25 48.75  17.5 32.5 48.75  17.5 32.5 50  17.5 31.25 50  16.25 31.25 50  16.25 32.5 48.75  16.25 32.5 50  18.75 31.25 48.75  20 31.25 48.75  18.75 31.25 50  21.25 31.25 48.75  21.25 31.25 50  16.25 33.75 48.75  16.25 33.75 50  10 22.5 45  11.25 22.5 45  11.25 21.25 45  11.25 21.25 43.75  12.5 22.5 45  11.25 22.5 43.75  11.25 23.75 45  11.25 23.75 43.75  12.5 23.75 45  12.5 25 45  10 23.75 45  10 25 45  11.25 25 45  10 26.25 43.75  8.75 26.25 43.75  10 25 42.5  10 25 43.75  10 26.25 45  8.75 26.25 45  11.25 22.5 46.25  11.25 21.25 46.25  12.5 22.5 46.25  12.5 22.5 47.5  10 22.5 47.5  11.25 22.5 47.5  11.25 21.25 47.5  10 22.5 46.25  10 23.75 46.25  8.75 23.75 46.25  10 25 46.25  10 25 47.5  10 23.75 47.5  8.75 25 46.25  11.25 23.75 46.25  12.5 23.75 46.25  12.5 25 46.25  12.5 25 47.5  12.5 23.75 47.5  11.25 23.75 47.5  11.25 25 46.25  11.25 25 47.5  10 26.25 46.25  8.75 26.25 46.25  10 26.25 47.5  8.75 26.25 47.5  11.25 26.25 46.25  11.25 26.25 47.5  12.5 26.25 47.5  11.25 22.5 48.75  11.25 21.25 48.75  12.5 22
[...]
<PointData  Vectors="u"> 
<DataArray  type="Float64"  Name="u"  NumberOfComponents="3" format="ascii">1.9999999999103812e+02 -1.1649007008815564e-10 8.7226975583583222e-11  1.9999999999080492e+02 -9.4533209664361399e-11 -1.8736451065388198e-10  1.9999999999088081e+02 6.9545250520573859e-11 -7.3685653230195095e-11  1.9999999999170510e+02 -5.7680985872749684e-11 -1.4514861351379929e-10  1.9999999999168591e+02 -5.3272115209207516e-11 -1.5946862187862609e-10  1.9999999999104938e+02 -1.6123255051546595e-10 6.7998697345781841e-11  1.9999999999089451e+02 -2.6341027369763539e-11 3.3644898839968291e-11  1.9999999999164777e+02 1.9953468021808618e-11 -1.9639924660038090e-10  1.9999999999176777e+02 -2.3776096724577261e-11 -1.3509669702886628e-10  1.9999999999091918e+02 4.9088502368563818e-11 -1.5111823155998267e-10  1.9999999999171337e+02 -2.8696990399366576e-11 -8.8642454468798368e-11  1.9999999999086512e+02 8.9449481142319284e-11 -3.6517194475195496e-11  1.9999999999165627e+02 -7.3844177864088508e-11 -1.5322672870279247e-10  1.9999999999105526e+02 -1.2020594177284988e-10 1.3027071502992131e-10  1.9999999999087422e+02 -1.2172877769613580e-11 5.2821505573802222e-11  1.9999999999111677e+02 4.6453427449787411e-12 1.3731098764745567e-10  1.9999999999286140e+02 -1.7094702462457164e-10 7.4916055908097710e-11  1.9999999999173897e+02 2.4965832434870216e-11 -2.1876662859648465e-10  1.9999999999181085e+02 7.1646892181272570e-12 -1.3787872473075912e-10  1.9999999999273913e+02 -2.8337461155370676e-11 -6.7984353545346873e-12  1.9999999999290219e+02 -2.4507239176834998e-11 1.2377568000618398e-10  1.9999999999177473e+02 -4.4985803836681000e-11 -8.6035165210769835e-11  1.9999999999255871e+02 5.2839835784314934e-11 -1.6084942874935853e-10  1.9999999999352750e+02 -3.6993618955897736e-11 -1.3774011483931161e-10  1.9999999999268979e+02 -3.1828752772461735e-11 -3.0933370926999234e-11  1.9999999999289861e+02 -7.6908576159870510e-12 1.1919644353993952e-10  1.9999999999266214e+02 5.9438313208346290e-11 -6.1551813017752191e-11  1.9999999999346301e+02 2.0502966485788859e-12 -1.9359664548680122e-10  1.9999999999287678e+02 -1.4343890153188182e-10 9.7967655652184307e-11  1.9999999999276463e+02 5.0776699370441646e-13 -7.0320542287204772e-12  1.9999999999348003e+02 7.1979399742621172e-11 -1.8796140856997165e-10  1.9999999999359483e+02 6.7822082409651328e-11 -1.1299925029908283e-10  1.9999999999466633e+02 -3.5287051644303134e-11 1.3423417231208016e-10  1.9999999999360480e+02 -1.9972942431337381e-11 -5.6024171419538182e-11  1.9999999999179565e+02 -1.7475560403387903e-11 -1.0067501551801352e-10  1.9999999999079344e+02 4.3705326979424167e-11 -1.6535157708727914e-10  1.9999999999088013e+02 6.3818060117393549e-12 -3.0893266781619977e-11  1.9999999999111012e+02 1.9997595699464611e-11 1.1060621482277754e-10  1.9999999999169728e+02 -2.1606305174455409e-11 -1.9067338808421543e-10  1.9999999999088047e+02 9.9446326221935972e-11 -9.5656127755781848e-11  1.9999999999105935e+02 -1.2701269692445327e-10 1.1019340606955627e-10  1.9999999999087794e+02 1.0353085429185615e-11 -1.4927235499378713e-12  1.9999999999171430e+02 7.6281898216512358e-11 -1.9907812836252538e-10  1.9999999999181037e+02 5.0653664122788224e-11 -6.9590363188134435e-11  1.9999999999165047e+02 -1.1194314890476636e-11 -2.1412493597447893e-10  1.9999999999179056e+02 -6.9594927765553329e-12 -1.0392954245527615e-10  1.9999999999179664e+02 -8.5983016826927553e-11 -7.1180471573347343e-11  1.9999999999079824e+02 -9.6425922925954490e-11 -1.3848846812140274e-10  1.9999999999174014e+02 -1.1474289416653268e-10 -2.2031136374440388e-10  1.9999999999258327e+02 7.5594339772542074e-11 -1.3470636807426576e-10  1.9999999999350629e+02 -1.9395958825903328e-11 -8.1646932907651273e-11  1.9999999999266558e+02 -3.6713329819890958e-11 -9.7905903709213912e-11  1.9999999999287115e+02 -1.3087914147748550e-11 1.0807650199894288e-10  1.9999999999272458e+02 5.3558616773537377e-11 -8.4426481309429892e-11  1.9999999999346389e+02 6.2260669893032854e-11 -1.2896459196848504e-10  1.9999999999283077e+02 -6.8940143481984218e-11 7.2552665157505934e-11  1.9999999999274112e+02 -1.4798192658918259e-11 1.4737810128066094e-11  1.9999999999461568e+02 -1.0688622898367284e-10 6.5224249774753232e-11  1.9999999999351405e+02 5.7766658631440645e-11 -1.5430011528552196e-10  1.9999999999358604e+02 1.1829887366043838e-10 -8.3301706923891444e-11  1.9999999999344104e+02 -3.8964953388530149e-11 -2.3681161727641138e-10  1.9999999999452783e+02 1.1698256649239318e-12 -1.3512289179431227e-11  1.9999999999468355e+02 -3.4951576995273618e-11 1.0504990328773702e-10  1.9999999999356768e+02 -2.0522756926192576e-11 -1.0837939593408241e-10  1.9999999999443577e+02 -6.9230248350648703e-11 -4.6512459737765362e-11  1.9999999999177783e+02 -6.1112528848211093e-11 -9.5752451493271146e-11  1.9999999999078810e+02 4.5312252943747225e-11 -1.3585697144519667e-10  1.9999999999093322e+02 6.5083101069106180e-12 -1.2823959942609332e-10  1.9999999999110125e+02 -1.1449256614000333e-11 7.4169933363380541e-11  1.9999999999170939e+02 5.5131353085209329e-11 -1.7129937798789445e-10  1.9999999999088777e+02 5.7407600486791644e-11 -2.4459957429221916e-11  1.9999999999106322e+02 -7.1456997191693197e-11 1.2144432331038968e-11  1.9999999999090048e+02 -6.3243542363591434e-11 -4.0119153771604604e-11  1.9999999999171979e+02 1.2789504601177721e-11 -1.6455259645169864e-10  1.9999999999183018e+02 1.4938260682945210e-10 -9.4761476112079551e-11  1.9999999999162935e+02 1.6427884298323581e-11 -2.6255704764057800e-10  1.9999999999177024e+02 -7.3389763222816957e-12 -7.9519338933889205e-11  1.9999999999354833e+02 -1.0599221128917968e-10 -6.9822009348443824e-11  1.9999999999256499e+02 -8.4853930327154291e-11 -1.0388440428121304e-10  1.9999999999272910e+02 -4.3286252846554715e-11 -3.9413951631591064e-11  1.9999999999353437e+02 -1.0282686272541216e-10 -1.6614431618221948e-10  1.9999999999177510e+02 -9.6158735428841947e-11 -1.0888151814337536e-10  1.9999999999084346e+02 -1.0846974771777630e-10 -1.6404584183288329e-10  1.9999999999088229e+02 -2.1590890843782111e-11 -1.9404723554299620e-11  1.9999999999107547e+02 8.3382089684586421e-11 4.3085041726352508e-11  1.9999999999172121e+02 -6.5182513099391707e-11 -1.6379812429612590e-10  1.9999999999352565e+02 9.9695538409858605e-13 1.4462687318839352e-11  1.9999999999250673e+02 -3.3068750165487753e-12 1.2873052681725580e-13  1.9999999999266186e+02 -1.4643971847861568e-11 3.2913249746291080e-11  1.9999999999285777e+02 -1.1116436402861876e-11 -5.6713840449880392e-10  1.9999999999340909e+02 -1.9556095947393782e-11 -8.2732977077839661e-11  1.9999999999464174e+02 -4.7682890531571242e-12 -5.1363626224046313e-10  1.9999999999358079e+02 3.2879409554242897e-11 -1.8902608818444981e-11  1.9999999999172834e+02 -3.5406864712931839e-12 -2.6841734747456384e-13  1.9999999999074137e+02 8.4553000859282330e-12 2.9289549115572565e-11  1.9999999999085290e+02 -5.6337122225309546e-12 2.8748138668489271e-11  1.9999999999107257e+02 -8.5172201968674747e-12 -5.3113499224084304e-10  1.9999999999164393e+02 -1.3337554291439890e-11 -5.2026138180294116e-11  1.9999999999180673e+02 2.1313968479637316e-11 -6.0126386217040765e-11  1.9999999998995770e+02 1.0443934597896719e-11 5.1622659977459344e-11  1.9999999998986956e+02 4.6872525718098443e-11 1.0788448459901584e-10  1.9999999999002864e+02 2.0630487325037336e-11 -6.8571187364681762e-11  1.9999999998933720e+02 3.8765323971559806e-12 -5.7212104572061316e-10  1.9999999999353625e+02 -1.2536854843683774e-10 5.1033099745016461e-11  1.9999999999252640e+02 -9.8208782204709531e-11 1.8555861721958586e-11  1.9999999999274638e+02 -1.3151029296806937e-11 -2.9248188529887729e-11  1.9999999999279876e+02 6.6836366341159459e-11 -5.2707135095492732e-10  1.9999999999361171e+02 -9.6755090408496906e-12 3.3307832459467368e-10  1.9999999999461528e+02 -5.3474867428362959e-11 2.2963186727732240e-11  1.9999999999462045e+02 6.9163626304926410e-12 -5.2394372182240501e-10  1.9999999999371082e+02 2.2762267661990112e-11 -2.3751865219797307e-11  1.9999999999174753e+02 -1.2207576759134891e-10 3.2943199754502950e-11  1.9999999999083678e+02 -7.2059174957069549e-11 3.0463884473446017e-11  1.9999999999103341e+02 1.6074505631149685e-11 -6.1225944584424535e-11  1.9999999999101539e+02 7.4170589448426312e-12 -5.4425943124266680e-10  1.9999999999183535e+02 -2.1776865139182623e-11 2.7574409746097152e-10  1.9999999999187742e+02 7.7748635854383659e-11 2.4091989578884375e-12  1.9999999998999652e+02 -9.8115629677793561e-11 6.4010238839438397e-11  1.9999999999005911e+02 -3.3369698935394452e-11 2.0719310601866955e-10  1.9999999998907160e+02 6.0065474973603312e-12 3.3860018787159505e-11  1.9999999998928479e+02 -1.6756710171040542e-12 -5.7318812118915254e-10  1.9999999999007773e+02 1.2947460670287211e-11 -6.4228324667346024e-11  1.9999999998754836e+02 -1.0094267086491216e-10 1.1483032025704742e-10  1.9999999998649250e+02 -8.1294928870500917e-12 -5.3797500614927543e-11  1.9999999998649042e+02 3.1050369287064235e-11 -9.6776861561632014e-11  1.9999999998656494e+02 -2.1513114558700090e-11 -8.2719032580823928e-11  1.9999999998587253e+02 -5.6373338590148308e-11 9.7400602685351184e-11  1.9999999998567961e+02 9.1942518766998261e-11 -2.0546621493633838e-11  1.9999999998585170e+02 -9.6771747356556887e-11 1.3570573818953262e-10  1.9999999998735865e+02 4.9914498480765977e-11 -3.7422379795654163e-11  1.9999999998755459e+02 -1.1859999945352490e-10 1.4478875227864370e-10  1.9999999998658998e+02 5.7455457055994327e-11 -5.2767176840683994e-11  1.9999999998482744e+02 -9.4503413537625376e-11 -7.6512498709907001e-11  1.9999999998476983e+02 6.1210629624532409e-11 -1.0785106073734170e-10  1.9999999998486504e+02 2.3173598104737178e-11 -2.9597839921169106e-11  1.9999999998416820e+02 -1.0116989150337944e-12 1.0112028491034123e-10  1.9999999998400747e+02 1.4143660844274262e-10 -2.8239834405891622e-11  1.9999999998414617e+02 -5.2496532694145085e-11 1.0534525228709411e-10  1.9999999998484654e+02 5.5656322452917078e-11 -2.9568910103214297e-11  1.9999999998481266e+02 1.5682319518026665e-12 -7.7882155935787737e-11  1.9999999998478168e+02 5.2369238220969192e-11 -1.1669991283027897e-10  1.9999999998385843e+02 9.1605915105845651e-11 -1.0876379594459188e-10  1.9999999998388904e+02 9.2862449746368248e-11 -5.0324208307614802e-11  1.9999999998412648e+02 -9.5936015038550701e-11 1.3668828616677424e-10  1.9999999998404567e+02 1.9082442202632413e-11 1.3130257406151391e-11  1.9999999998417567e+02 -3.5027472773170063e-11 1.1946883434562446e-10  1.9999999998569666e+02 1.1171680526273474e-10 -2.0865672086721577e-11  1.9999999998583482e+02 -1.0132142314577141e-10 1.3728334288072414e-10  1.9999999998476781e+02 7.1208722262970053e-11 -1.0929045791414434e-10  1.9999999998486851e+02 9.8352275577323215e-11 -5.0147886403248420e-11  1.9999999998311981e+02 5.8226819617227472e-11 -5.7482840633337392e-11  1.9999999998306674e+02 5.9690349655110182e-11 -3.0795587172233696e-10  1.9999999998316710e+02 1.9724115548835232e-10 -1.5187502275157771e-10  1.9999999998245525e+02 2.6472471317214761e-11 6.7145092935223163e-11  1.9999999998307106e+02 7.0024147105753934e-11 -8.9782106978877640e-11  1.9999999998236225e+02 1.8741959376223523e-10 1.6931929601713791e-11  1.9999999998245744e+02 -4.7797614726153882e-11 8.1282623114739513e-11  1.9999999998310582e+02 1.1248974108272093e-10 -1.3901012562864311e-10  1.9999999998316116e+02 8.0281190068274294e-11 3.3572523140397846e-11  1.9999999998934817e+02 -1.4856381972233564e-10 9.2356563667106021e-11  1.9999999998910920e+02 4.2752446939409535e-11 -1.2752368020490664e-10  1.9999999998917684e+02 4.2081080788175862e-11 -4.3562041515553802e-11  1.9999999998999598e+02 -1.4513163114039102e-11 -7.0922764783892653e-11  1.9999999998993570e+02 -7.9898993861056073e-11 -8.7132571704171610e-11  1.9999999999009046e+02 -9.8613706594948855e-13 -9.0064603591042130e-11  1.9999999998931639e+02 -1.3947129337120312e-10 1.4467656238657356e-10  1.9999999999101453e+02 -1.3757955544869468e-10 9.5869386048683400e-11  1.9999999999005431e+02 2.2611101554177273e-11 -3.9974843847565107e-12  1.9999999998827951e+02 -6.3930905368618879e-11 -9.4004301177479620e-11  1.9999999998823495e+02 5.7172219275669690e-11 -1.4162898527121901e-10  1.9999999998827855e+02 2.3930792323337340e-11 -3.2098252470350868e-11  1.9999999998759068e+02 -1.4126269273439405e-10 1.3778033952710977e-10  1.9999999998731997e+02 5.1961240116863068e-11 -1.2285717895830041e-10  1.9999999998741373e+02 4.7551566862139888e-11 2.5623291519345875e-11  1.9999999998761575e+02 -1.2453283774401431e-10 1.0293519659279591e-10  1.9999999998819393e+02 1.4706642569550348e-11 -1.6835563402032644e-10  1.9999999998830060e+02 2.9847307609381167e-11 -8.4360786629039470e-11  1.9999999998649653e+02 -5.7287728373942012e-11 -8.8581316199956880e-11  1.9999999998650233e+02 6.1962863369090668e-11 -1.0233113027633036e-10  1.9999999998658762e+02 7.3803640107600547e-11 -3.9418482942680262e-11  1.9999999998563851e+02 3.3026260654696214e-11 -1.4248735419098714e-10  1.9999999998566508e+02 5.2750218728384501e-11 -2.7107104002899645e-11  1.9999999998583843e+02 -1.1901480911603329e-10 1.0102891878041450e-10  1.9999999998575504e+02 -5.7971078102079209e-11 3.6935522239035258e-11  1.9999999998648329e+02 1.4151260015756264e-11 -1.5687456838741185e-10  1.9999999998655940e+02 4.9802706863838611e-11 -7.4356835605195093e-11  1.9999999998481465e+02 -3.2342834253059671e-11 -8.5910346839616520e-11  1.9999999998385172e+02 6.8285271652897400e-11 -1.6106842986536455e-10  1.9999999998474621e+02 9.4287777004840126e-11 -1.2094721537366249e-10  1.9999999998396737e+02 7.7710242724594623e-11 -3.9289792543530438e-11  1.9999999998412466e+02 -1.0697447938470354e-10 1.0493757918257315e-10  1.9999999998403914e+02 -3.0904445016444549e-11 -8.1287082197353058e-12  1.9999999998477080e+02 4.7004247804683156e-11 -1.7681090869175012e-10  1.9999999998485177e+02 7.3417838252999222e-11 -6.3800386311519623e-11  1.9999999998312617e+02 1.0892734709854517e-11 -9.0124037511754006e-11  1.9999999998306549e+02 6.3405490304054505e-11 -1.4440847227918040e-10  1.9999999998223177e+02 1.3570498855347727e-10 2.5657051825993197e-11  1.9999999998240554e+02 -6.4363664810706942e-11 4.9301509235405604e-11  1.9999999998305822e+02 3.3390395158507124e-11 -2.1420006232931747e-10  1.9999999998316531e+02 5.3138976528147622e-11 -3.2216410920402990e-11  1.9999999998233969e+02 -8.8023810539813408e-12 -2.5050429177995302e-11  1.9999999998248316e+02 -2.1495210753439352e-11 7.8058227789649390e-11  1.9999999998993295e+02 -6.2961582614377676e-11 -8.2371572620035263e-11  1.9999999998996012e+02 1.5650570129936938e-11 -1.9525737353966492e-10  1.9999999998908891e+02 -1.7093530913662153e-11 -1.8082977048033506e-10  1.9999999998912119e+02 -2.6163303621134076e-12 -1.7385844200285024e-11  1.9999999998935047e+02 -1.6476018096327352e-10 5.2368899146021069e-11  1.9999999998923232e+02 -6.4733878776266271e-11 7.9801518619411453e-12  1.9999999998933305e+02 -2.9419733120002014e-11 1.3332191260563944e-10  1.9999999999092333e+02 6.7454336437658502e-11 -7.5276364643926805e-11  1.9999999999006391e+02 6.5867693087223644e-11 -1.3718046523771205e-10  1.9999999999093700e+02 1.1494706009984159e-11 -5.2857050220260441e-11  1.9999999998825510e+02 -6.1738039919410033e-11 -9.6401760570441282e-11  1.9999999998820007e+02 -7.0552780988810612e-12 -9.4800471155713938e-11  1.9999999998731934e+02 1.2872308754986369e-11 -1.5182391286204370e-10  1.9999999998741453e+02 -6.4067617310576224e-12 -2.5008883535185877e-11  1.9999999998758452e+02 -1.7656018053209167e-10 6.8647827418219645e-11  1.9999999998745810e+02 -4.5223658883656451e-11 -3.5070932335215618e-11  1.9999999998764460e+02 -4.9854552573456032e-11 1.2173945776440032e-10  1.9999999998820519e+02 -2.6287727906370632e-11 -1.6948794892184518e-10  1.9999999998829620e+02 6.8104283846818811e-11 -1.2472549356627008e-10  1.9999999998825558e+02 -2.5323678777254172e-11 -9.1984769127744767e-11  1.9999999998652891e+02 -3.9488962215064496e-11 -1.2671228051661981e-10  1.9999999998556819e+02 3.5151847047374698e-11 -1.8615439715931113e-10  1.9999999998645791e+02 -8.2179409056938450e-12 -1.4782738515378014e-10  1.9999999998563197e+02 1.2390496987286190e-11 -6.3827099588974271e-11  1.9999999998587015e+02 -1.7031673115626997e-10 4.1893189622512189e-11  1.9999999998570311e+02 -2.0595639511088280e-11 -2.6170106768600258e-11  1.9999999998588106e+02 -1.4630468480208060e-11 8.3470388049089087e-11  1.9999999998648968e+02 5.2856011093747555e-11 -2.2412492371182643e-10  1.9999999998651063e+02 2.2129099775870391e-11 -1.4900407332250888e-10  1.9999999998652257e+02 -3.0594654870077192e-12 -1.1452428084216429e-10  1.9999999998478395e+02 -2.9805793033253972e-11 -1.5569938784504428e-10  1.9999999998388881e+02 3.5321465845320599e-11 -1.7127002954268324e-10  1.9999999998475289e+02 2.2874927167955338e-11 -1.4350768269508943e-10  1.9999999998396160e+02 1.7125709493609375e-12 -4.2954207959990382e-11  1.9999999998415205e+02 -1.3574417219467258e-10 5.3175634948844958e-11  1.9999999998403047e+02 1.1679999885159033e-11 -2.5346239565500864e-11  1.9999999998415845e+02 4.9993812772734304e-12 1.0456969598308805e-10  1.9999999998477222e+02 3.7242274933131379e-11 -1.6990288587868704e-10  1.9999999998486101e+02 5.0953071144252729e-11 -1.2720135720748757e-10  1.9999999998307740e+02 -3.1781203109536596e-11 -1.1896938209907816e-10  1.9999999998303696e+02 -9.7259779898801865e-12 -1.3492406720089476e-10  1.9999999998224274e+02 2.7565446200727201e-11 1.8031237005306863e-11  1.9999999998244289e+02 -1.1191330475529078e-10 3.8447080686746620e-11  1.9999999998302374e+02 7.4802269494901431e-12 -2.2861774882343449e-10  1.9999999998317242e+02 7.8362915309675623e-11 -1.1908575717984439e-10  1.9999999998236410e+02 1.4181273741910841e-11 3.6317663890058183e-11  1.9999999998248813e+02 -4.2189709684616142e-11 1.2776768611904717e-10  1.9999999998306799e+02 5.1365681034292621e-12 -1.2984791320837595e-10  1.9999999998904823e+02 3.6015694172400290e-11 -1.5499907781870089e-10  1.9999999998998203e+02 -1.4629026146261335e-11 -1.1417636546905418e-10  1.9999999998990526e+02 6.2066008051201570e-11 -1.5900076037762599e-10  1.9999999998917670e+02 7.1438316034083730e-11 -1.0340298825681936e-10  1.9999999998927274e+02 -1.0620908147470682e-10 1.0077323175837596e-10  1.9999999998925514e+02 -3.4875459879153110e-11 -1.0166996241957783e-10  1.9999999998927157e+02 -2.2213399142903200e-11 1.3169760063086052e-10  1.9999999999008455e+02 -5.6014421656665790e-11 -5.1828727568039201e-11  1.9999999999009688e+02 1.3616188261398713e-10 -4.8075358565123222e-11  1.9999999998825527e+02 -6.5374033476351005e-11 -1.2660752256292843e-10  1.9999999998727444e+02 4.8640827853203552e-11 -1.4745669886276765e-10  1.9999999998741211e+02 -3.1948147175669348e-11 -4.3597860777990497e-11  1.9999999998763096e+02 -3.8056184914781233e-11 9.9152065011415491e-11  1.9999999998821605e+02 4.0015609637853859e-11 -1.6732396016303066e-10  1.9999999998738787e+02 1.5357390960718778e-11 -8.4531884473265448e-11  1.9999999998756084e+02 -1.6261609152432505e-10 8.0089810471052306e-11  1.9999999998746560e+02 5.2209131559017031e-12 -3.0538205514227138e-11  1.9999999998825390e+02 3.3620345073288986e-11 -2.2951086070287354e-10  1.9999999998833908e+02 3.9573824726965034e-11 -1.2156243000025752e-10  1.9999999998831163e+02 -5.2470361766411778e-11 -9.1064877234774432e-11  1.9999999998649119e+02 -2.6084036247234361e-11 -1.2678453025663748e-10  1.9999999998558627e+02 6.1413866764760355e-11 -1.9854823595246466e-10  1.9999999998567719e+02 -1.6622446565869475e-11 -7.9414191344769716e-11  1.9999999998588007e+02 5.2255353559087156e-12 1.2903144774768039e-10  1.9999999998643648e+02 2.4951642547060289e-11 -1.6759632794921640e-10  1.9999999998565875e+02 5.5337818483489530e-11 -9.1386290600230465e-11  1.9999999998584079e+02 -1.8379972273891391e-10 1.0786101575098625e-10  1.9999999998575521e+02 3.4715965051940947e-11 -6.0771487123419849e-12  1.9999999998643725e+02 8.3022990683435061e-11 -1.9402297874976710e-10  1.9999999998654519e+02 4.990425