<?xml version="1.0"?>
<VTKFile type="UnstructuredGrid"  version="0.1"  >
<UnstructuredGrid>
<Piece  NumberOfPoints="3942" NumberOfCells="19427">
<Points>
<DataArray  type="Float64"  NumberOfComponents="3"  format="ascii">0 27.5 30  1.25 28.75 31.25  1.25 27.5 31.25  1.25 27.5 30  2.5 27.5 30  2.5 28.75 31.25  2.5 27.5 31.25  2.5 27.5 32.5  2.5 28.75 32.5  2.5 30 32.5  0 27.5 31.25  0 27.5 32.5  1.25 28.75 32.5  1.25 27.5 32.5  0 28.75 31.25  0 28.75 32.5  0 30 32.5  1.25 30 32.5  3.75 28.75 31.25  3.75 27.5 31.25  3.75 27.5 30  5 27.5 30  5 28.75 31.25  5 27.5 31.25  5 27.5 32.5  5 28.75 32.5  5 30 32.5  3.75 28.75 32.5  3.75 27.5 32.5  3.75 30 32.5  6.25 28.75 31.25  6.25 27.5 31.25  6.25 27.5 30  7.5 27.5 30  7.5 27.5 31.25  7.5 27.5 32.5  6.25 28.75 32.5  6.25 27.5 32.5  8.75 28.75 31.25  8.75 27.5 31.25  8.75 27.5 30  10 27.5 30  10 27.5 31.25  10 27.5 32.5  8.75 28.75 32.5  8.75 27.5 32.5  1.25 28.75 33.75  2.5 28.75 33.75  2.5 30 33.75  2.5 30 35  1.25 27.5 33.75  2.5 27.5 33.75  2.5 27.5 35  2.5 28.75 35  0 27.5 33.75  0 27.5 35  1.25 28.75 35  1.25 27.5 35  1.25 30 33.75  0 28.75 33.75  0 28.75 35  0 30 35  1.25 30 35  0 30 33.75  3.75 28.75 33.75  5 28.75 33.75  5 30 33.75  5 30 35  3.75 27.5 33.75  5 27.5 33.75  5 27.5 35  5 28.75 35  3.75 28.75 35  3.75 27.5 35  3.75 30 33.75  3.75 30 35  6.25 28.75 33.75  6.25 27.5 33.75  7.5 28.75 33.75  7.5 27.5 33.75  7.5 27.5 35  6.25 28.75 35  6.25 27.5 35  8.75 28.75 33.75  8.75 27.5 33.75  10 27.5 33.75  10 27.5 35  8.75 27.5 35  1.25 31.25 33.75  0 31.25 33.75  1.25 28.75 36.25  2.5 28.75 36.25  2.5 30 36.25  2.5 30 37.5  1.25 27.5 36.25  2.5 27.5 36.25  2.5 27.5 37.5  2.5 28.75 37.5  0 27.5 36.25  0 27.5 37.5  1.25 28.75 37.5  1.25 27.5 37.5  0 28.75 36.25  0 28.75 37.5  0 30 37.5  1.25 30 37.5  3.75 28.75 36.25  5 28.75 36.25  3.75 27.5 36.25  5 27.5 36.25  5 27.5 37.5  5 28.75 37.5  5 30 37.5  3.75 28.75 37.5  3.75 27.5 37.5  3.75 30 37.5  6.25 28.75 36.25  6.25 27.5 36.25  7.5 28.75 36.25  7.5 27.5 36.25  7.5 27.5 37.5  6.25 28.75 37.5  6.25 27.5 37.5  8.75 28.75 36.25  8.75 27.5 36.25  10 27.5 36.25  10 27.5 37.5  8.75 28.75 37.5  8.75 27.5 37.5  11.25 28.75 36.25  11.25 27.5 36.25  11.25 28.75 37.5  11.25 27.5 37.5  12.5 27.5 37.5  1.25 28.75 38.75  2.5 28.75 38.75  2.5 30 38.75  2.5 30 40  1.25 27.5 38.75  2.5 27.5 38.75  2.5 27.5 40  2.5 28.75 40  0 27.5 38.75  0 27.5 40  1.25 28.75 40  1.25 27.5 40  0 28.75 38.75  0 28.75 40  0 30 40  1.25 30 40  0 30 38.75  3.75 28.75 38.75  5 28.75 38.75  3.75 27.5 38.75  5 27.5 38.75  5 27.5 40  5 28.75 40  3.75 28.75 40  3.75 27.5 40  6.25 28.75 38.75  6.25 27.5 38.75  7.5 28.75 38.75  7.5 27.5 38.75  7.5 27.5 40  7.5 28.75 40  7.5 30 40  6.25 28.75 40  6.25 27.5 40  8.75 28.75 38.75  8.75 27.5 38.75  10 28.75 38.75  10 27.5 38.75  10 27.5 40  10 28.75 40  10 30 40  8.75 28.75 40  8.75 27.5 40  11.25 28.75 38.75  11.25 27.5 38.75  11.25 28.75 40  11.25 27.5 40  1.25 28.75 41.25  2.5 28.75 41.25  2.5 30 41.25  2.5 30 42.5  1.25 27.5 41.25  2.5 27.5 41.25  2.5 27.5 42.5  2.5 28.75 42.5  0 27.5 41.25  0 27.5 42.5  1.25 28.75 42.5  1.25 27.5 42.5  0 28.75 41.25  0 28.75 42.5  0 30 42.5  0 30 41.25  3.75 28.75 41.25  5 28.75 41.25  3.75 27.5 41.25  5 27.5 41.25  5 27.5 42.5  5 28.75 42.5  5 30 42.5  3.75 28.75 42.5  3.75 27.5 42.5  3.75 30 42.5  6.25 28.75 41.25  7.5 28.75 41.25  6.25 27.5 41.25  7.5 27.5 41.25  7.5 27.5 42.5  7.5 28.75 42.5  7.5 30 42.5  6.25 28.75 42.5  6.25 27.5 42.5  6.25 30 42.5  8.75 28.75 41.25  10 28.75 41.25  10 30 41.25  10 30 42.5  8.75 27.5 41.25  10 27.5 41.25  10 27.5 42.5  10 28.75 42.5  8.75 28.75 42.5  8.75 27.5 42.5  8.75 30 42.5  11.25 28.75 41.25  11.25 27.5 41.25  1.25 28.75 43.75  2.5 28.75 43.75  2.5 30 43.75  2.5 30 45  1.25 27.5 43.75  2.5 27.5 43.75  2.5 27.5 45  2.5 28.75 45  0 27.5 43.75  0 27.5 45  1.25 28.75 45  1.25 27.5 45  0 28.75 43.75  0 28.75 45  0 30 45  1.25 30 45  0 30 43.75  3.75 28.75 43.75  5 28.75 43.75  5 30 43.75  5 30 45  3.75 27.5 43.75  5 27.5 43.75  5 27.5 45  5 28.75 45  3.75 28.75 45  3.75 27.5 45  3.75 30 45  6.25 28.75 43.75  7.5 28.75 43.75  7.5 30 43.75  7.5 30 45  6.25 27.5 43.75  7.5 27.5 43.75  7.5 27.5 45  7.5 28.75 45  6.25 28.75 45  6.25 27.5 45  6.25 30 43.75  6.25 30 45  8.75 28.75 43.75  8.75 27.5 43.75  8.75 28.75 45  8.75 27.5 45  1.25 28.75 46.25  2.5 28.75 46.25  2.5 30 46.25  2.5 30 47.5  1.25 30 46.25  0 28.75 46.25  0 30 46.25  0 30 47.5  1.25 30 47.5  3.75 28.75 46.25  5 28.75 46.25  5 30 46.25  5 30 47.5  3.75 27.5 46.25  5 27.5 46.25  5 27.5 47.5  5 28.75 47.5  2.5 27.5 46.25  2.5 27.5 47.5  3.75 28.75 47.5  3.75 27.5 47.5  3.75 30 46.25  2.5 28.75 47.5  3.75 30 47.5  6.25 28.75 46.25  7.5 28.75 46.25  7.5 30 46.25  7.5 30 47.5  6.25 27.5 46.25  7.5 27.5 46.25  7.5 27.5 47.5  7.5 28.75 47.5  6.25 28.75 47.5  6.25 27.5 47.5  6.25 30 46.25  6.25 30 47.5  8.75 28.75 46.25  8.75 27.5 46.25  1.25 31.25 46.25  1.25 31.25 47.5  0 31.25 46.25  3.75 31.25 46.25  5 31.25 46.25  5 31.25 47.5  5 32.5 47.5  3.75 31.25 47.5  6.25 31.25 46.25  6.25 31.25 47.5  3.75 28.75 48.75  5 28.75 48.75  5 30 48.75  5 30 50  3.75 30 48.75  6.25 28.75 48.75  7.5 28.75 48.75  7.5 30 48.75  7.5 30 50  6.25 30 48.75  6.25 30 50  8.75 28.75 48.75  8.75 30 48.75  1.25 31.25 48.75  1.25 30 48.75  2.5 31.25 48.75  2.5 30 48.75  2.5 30 50  2.5 31.25 50  2.5 32.5 50  0 30 48.75  0 30 50  1.25 31.25 50  1.25 30 50  0 31.25 48.75  0 31.25 50  0 32.5 50  3.75 31.25 48.75  5 31.25 48.75  5 31.25 50  5 32.5 50  3.75 31.25 50  3.75 30 50  3.75 32.5 50  6.25 31.25 48.75  7.5 31.25 48.75  7.5 31.25 50  7.5 32.5 50  6.25 31.25 50  6.25 32.5 50  8.75 31.25 48.75  11.25 28.75 33.75  11.25 27.5 33.75  11.25 27.5 32.5  12.5 27.5 32.5  12.5 28.75 33.75  12.5 27.5 33.75  12.5 27.5 35  11.25 27.5 35  13.75 28.75 33.75  13.75 27.5 33.75  13.75 27.5 32.5  12.5 28.75 36.25  12.5 27.5 36.25  2.5 5 27.5  2.5 6.25 27.5  2.5 6.25 26.25  1.25 6.25 26.25  2.5 7.5 27.5  1.25 6.25 27.5  0 7.5 27.5  1.25 7.5 27.5  1.25 7.5 26.25  3.75 6.25 27.5  3.75 5 27.5  3.75 6.25 26.25  5 5 27.5  5 6.25 27.5  5 7.5 27.5  3.75 7.5 27.5  3.75 7.5 26.25  7.5 7.5 25  7.5 7.5 26.25  7.5 6.25 26.25  6.25 6.25 26.25  7.5 7.5 27.5  6.25 7.5 26.25  6.25 6.25 27.5  6.25 7.5 27.5  2.5 10 25  2.5 10 26.25  2.5 8.75 26.25  1.25 8.75 26.25  2.5 10 27.5  2.5 8.75 27.5  1.25 8.75 27.5  0 10 25  1.25 10 26.25  1.25 10 25  0 8.75 27.5  0 8.75 26.25  0 10 27.5  1.25 10 27.5  0 10 26.25  5 10 25  5 10 26.25  5 8.75 26.25  3.75 8.75 26.25  5 10 27.5  5 8.75 27.5  3.75 8.75 27.5  3.75 10 26.25  3.75 10 25  3.75 10 27.5  7.5 10 25  7.5 10 26.25  7.5 8.75 26.25  6.25 8.75 26.25  7.5 10 27.5  7.5 8.75 27.5  6.25 8.75 27.5  6.25 10 26.25  6.25 10 25  6.25 10 27.5  1.25 11.25 26.25  1.25 11.25 25  2.5 11.25 26.25  2.5 11.25 25  2.5 12.5 25  2.5 12.5 26.25  2.5 12.5 27.5  2.5 11.25 27.5  1.25 11.25 27.5  0 11.25 25  0 12.5 25  1.25 12.5 26.25  1.25 12.5 25  0 11.25 26.25  0 11.25 27.5  0 12.5 27.5  1.25 12.5 27.5  0 12.5 26.25  5 11.25 26.25  5 11.25 25  3.75 11.25 26.25  5 12.5 25  5 12.5 26.25  5 12.5 27.5  5 11.25 27.5  3.75 11.25 27.5  3.75 12.5 26.25  3.75 12.5 25  3.75 12.5 27.5  7.5 12.5 25  7.5 12.5 26.25  7.5 11.25 26.25  6.25 11.25 26.25  7.5 12.5 27.5  7.5 11.25 27.5  6.25 11.25 27.5  6.25 12.5 26.25  6.25 12.5 25  6.25 12.5 27.5  1.25 13.75 26.25  1.25 13.75 25  2.5 13.75 26.25  2.5 13.75 25  2.5 15 25  2.5 15 26.25  2.5 15 27.5  2.5 13.75 27.5  1.25 13.75 27.5  0 13.75 25  0 15 25  1.25 15 26.25  1.25 15 25  0 13.75 26.25  0 13.75 27.5  0 15 27.5  1.25 15 27.5  0 15 26.25  3.75 13.75 26.25  3.75 13.75 25  5 13.75 26.25  5 13.75 25  5 15 25  5 15 26.25  5 15 27.5  5 13.75 27.5  3.75 13.75 27.5  3.75 15 26.25  3.75 15 25  3.75 15 27.5  6.25 13.75 26.25  6.25 13.75 25  7.5 13.75 26.25  7.5 13.75 25  7.5 15 25  7.5 15 26.25  7.5 15 27.5  7.5 13.75 27.5  6.25 13.75 27.5  6.25 15 26.25  6.25 15 25  6.25 15 27.5  1.25 16.25 26.25  1.25 16.25 25  2.5 16.25 26.25  2.5 16.25 25  2.5 17.5 25  2.5 17.5 26.25  2.5 17.5 27.5  2.5 16.25 27.5  1.25 16.25 27.5  1.25 17.5 26.25  0 16.25 26.25  0 16.25 27.5  0 17.5 27.5  1.25 17.5 27.5  5 17.5 25  5 17.5 26.25  5 16.25 26.25  3.75 16.25 26.25  5 17.5 27.5  5 16.25 27.5  3.75 16.25 27.5  3.75 17.5 26.25  3.75 17.5 27.5  7.5 16.25 26.25  7.5 16.25 25  6.25 16.25 26.25  7.5 17.5 25  7.5 17.5 26.25  7.5 17.5 27.5  7.5 16.25 27.5  6.25 16.25 27.5  6.25 17.5 26.25  6.25 17.5 25  6.25 17.5 27.5  2.5 20 25  2.5 20 26.25  2.5 18.75 26.25  1.25 18.75 26.25  2.5 20 27.5  2.5 18.75 27.5  1.25 18.75 27.5  0 20 25  1.25 20 26.25  1.25 20 25  0 18.75 27.5  0 18.75 26.25  0 20 27.5  1.25 20 27.5  0 20 26.25  5 18.75 26.25  5 18.75 25  3.75 18.75 26.25  5 20 25  5 20 26.25  5 20 27.5  5 18.75 27.5  3.75 18.75 27.5  3.75 20 26.25  3.75 20 25  3.75 20 27.5  6.25 18.75 26.25  6.25 18.75 25  7.5 18.75 26.25  7.5 18.75 25  7.5 20 25  7.5 20 26.25  7.5 20 27.5  7.5 18.75 27.5  6.25 18.75 27.5  6.25 20 26.25  6.25 20 25  6.25 20 27.5  1.25 21.25 26.25  1.25 21.25 25  2.5 21.25 26.25  2.5 21.25 25  2.5 22.5 25  2.5 22.5 26.25  2.5 22.5 27.5  2.5 21.25 27.5  1.25 21.25 27.5  0 21.25 25  0 22.5 25  1.25 22.5 26.25  1.25 22.5 25  0 21.25 26.25  0 21.25 27.5  0 22.5 27.5  1.25 22.5 27.5  0 22.5 26.25  5 21.25 26.25  5 21.25 25  3.75 21.25 26.25  5 22.5 25  5 22.5 26.25  5 22.5 27.5  5 21.25 27.5  3.75 21.25 27.5  3.75 22.5 26.25  3.75 22.5 27.5  6.25 21.25 26.25  6.25 21.25 25  7.5 21.25 26.25  7.5 21.25 25  7.5 22.5 25  7.5 22.5 26.25  7.5 22.5 27.5  7.5 21.25 27.5  6.25 21.25 27.5  6.25 22.5 26.25  6.25 22.5 25  6.25 22.5 27.5  1.25 23.75 26.25  2.5 23.75 26.25  2.5 23.75 27.5  2.5 25 27.5  1.25 23.75 27.5  0 23.75 26.25  0 23.75 27.5  0 25 27.5  1.25 25 27.5  5 23.75 26.25  5 23.75 25  3.75 23.75 26.25  5 25 25  5 25 26.25  5 25 27.5  5 23.75 27.5  3.75 23.75 27.5  3.75 25 27.5  6.25 23.75 26.25  6.25 23.75 25  7.5 23.75 26.25  7.5 23.75 25  7.5 25 25  7.5 25 26.25  7.5 25 27.5  7.5 23.75 27.5  6.25 23.75 27.5  6.25 25 25  6.25 25 27.5  2.5 6.25 28.75  1.25 6.25 28.75  2.5 7.5 28.75  2.5 7.5 30  2.5 5 28.75  2
[...]
<PointData  Vectors="u"> 
<DataArray  type="Float64"  Name="u"  NumberOfComponents="3" format="ascii">2.0000000000056647e+02 -1.9110782865339197e-10 1.3688607126918385e-10  1.9999999999902911e+02 -8.3430345263994746e-11 -1.1365865203048598e-10  1.9999999999904026e+02 -1.2694684822687381e-13 -1.8759003636694258e-10  1.9999999999903281e+02 3.6721346640274717e-12 -5.1635433399279464e-11  1.9999999999822271e+02 -1.8353908510669071e-10 1.0517469761567514e-10  1.9999999999819812e+02 1.7783532922546975e-10 -2.9205017783556086e-10  1.9999999999819465e+02 -3.0053466137623955e-12 -5.3043123229381977e-11  1.9999999999821839e+02 -1.7748082824007594e-10 1.7792335077073148e-10  1.9999999999821418e+02 -6.9880674207592927e-11 -4.9795187795739599e-11  1.9999999999819175e+02 -3.1330979787605888e-11 1.4226520563046650e-10  2.0000000000005255e+02 -5.3946745244138447e-12 -5.9709545487797127e-11  2.0000000000053288e+02 -1.7612504036609015e-10 1.3760475543988142e-10  1.9999999999909446e+02 -6.7715433391467212e-11 -2.2934995650786774e-10  1.9999999999901590e+02 2.5433787379218808e-11 -5.1078226765182963e-11  1.9999999999965905e+02 -5.7607760643961414e-11 -6.4875357462646267e-11  1.9999999999989294e+02 -6.3214460690793609e-11 -3.5406457590398075e-11  2.0000000000057562e+02 3.0876188304498313e-11 1.0067742401083245e-10  1.9999999999899839e+02 -3.1399227709970434e-11 -1.3250554680566982e-10  1.9999999999717934e+02 -5.3980813868088915e-11 -9.9539268142497684e-11  1.9999999999714603e+02 3.8306623689795274e-11 -1.9100109554470560e-10  1.9999999999720842e+02 2.1529332398453028e-11 -8.5629145407867221e-11  1.9999999999643916e+02 -1.8815728652935131e-10 1.2598984627753970e-10  1.9999999999617515e+02 3.5514209869565750e-11 -1.4520627869110746e-10  1.9999999999628875e+02 4.8426362143504690e-11 -7.0162105298973111e-11  1.9999999999644220e+02 -1.5192426746276828e-10 9.1680723400055367e-11  1.9999999999634758e+02 -5.1785155670927324e-11 -2.0365257577491196e-11  1.9999999999646764e+02 -5.0943922185521660e-11 1.3354964184512215e-10  1.9999999999714206e+02 2.0780973291538648e-11 -2.1449130940372419e-10  1.9999999999721527e+02 3.5888799099539952e-11 -3.3620297241904814e-11  1.9999999999722016e+02 -4.9250078455904425e-11 -1.0788435732171545e-10  1.9999999999532884e+02 -6.7009515030805687e-11 -1.1377990983711954e-10  1.9999999999527745e+02 9.6110079371930730e-11 -1.6137096223841375e-10  1.9999999999541046e+02 6.7472606983551707e-11 -6.3899707319417641e-11  1.9999999999463702e+02 -1.5054451627893011e-10 1.0117918333612559e-10  1.9999999999445436e+02 7.1104659539413227e-11 -6.3762379417923044e-11  1.9999999999465473e+02 -1.1939592080360940e-10 1.1923359803311887e-10  1.9999999999529038e+02 3.4860807983273772e-11 -2.1393545602553501e-10  1.9999999999538457e+02 7.2813723304924716e-11 -9.1707259713607500e-11  1.9999999999347696e+02 -3.9908122978082328e-11 -9.5996711977379809e-11  1.9999999999344746e+02 -1.2916747223070861e-11 -1.3921999624675124e-10  1.9999999999352141e+02 3.3808958587007058e-11 -1.0358520292542194e-10  1.9999999999283853e+02 -1.2866930770028558e-10 8.9417356509438411e-11  1.9999999999263210e+02 -1.6381172887037838e-12 -2.0411884493918309e-11  1.9999999999285328e+02 -1.3072271162480034e-10 1.3719608594582283e-10  1.9999999999349501e+02 1.6428578820615650e-11 -1.7720577021718524e-10  1.9999999999357308e+02 5.6406912678466751e-11 -7.4770884436180865e-11  1.9999999999901465e+02 -1.1751578486914384e-10 -1.4505735276890895e-10  1.9999999999823200e+02 1.2473356692669372e-10 -2.8081448286112772e-10  1.9999999999819744e+02 -2.8718180023379547e-11 -4.6167557355039903e-11  1.9999999999821148e+02 4.6009431965935206e-12 1.3601775466293226e-10  1.9999999999904600e+02 -4.8967198267274727e-11 -1.7436891532813889e-10  1.9999999999821881e+02 -2.0441431149016346e-11 -1.2143770058345054e-10  1.9999999999819229e+02 -2.0699199932171088e-10 1.4833332152874852e-10  1.9999999999821159e+02 -3.0424365572911641e-11 -7.5588548171474085e-11  2.0000000000001779e+02 2.1623083148803977e-11 -1.0180821591542834e-10  2.0000000000054612e+02 -1.8219207928379363e-10 1.1786327722541808e-10  1.9999999999909073e+02 -1.4432468590722014e-10 -1.9095837295441342e-10  1.9999999999903804e+02 4.2452861529520183e-11 -3.7976524961541108e-11  1.9999999999902064e+02 -1.0438487084918930e-10 -1.9102022206079407e-10  1.9999999999963848e+02 -8.3384851915671906e-11 -1.5859483093614051e-10  1.9999999999996356e+02 -1.0405294859917235e-10 -6.7910725928621803e-11  2.0000000000055553e+02 8.0913677765421930e-11 1.2702508260889552e-10  1.9999999999902857e+02 1.5712378973045606e-11 -5.5583555006350680e-11  2.0000000000003362e+02 -2.0168056135455802e-10 -1.3652475440461439e-10  1.9999999999715124e+02 -6.0496812358097763e-11 -1.1130224678046526e-10  1.9999999999617884e+02 5.5221639790867054e-11 -1.7785089826188910e-10  1.9999999999626934e+02 -7.1036723686061490e-11 -1.0590397991820726e-10  1.9999999999648153e+02 -8.0476027407556997e-11 1.2124439745403374e-10  1.9999999999711483e+02 3.3308767095547973e-11 -1.9550439767962924e-10  1.9999999999625459e+02 5.1855636205999751e-11 -2.8319646264143092e-11  1.9999999999645252e+02 -1.6737257278127085e-10 9.9371962490908336e-11  1.9999999999633528e+02 -4.7661198516240784e-11 -2.5831773675275383e-11  1.9999999999715754e+02 1.9159547508218138e-11 -1.7672723090738589e-10  1.9999999999723150e+02 3.0157859413345920e-11 -8.4609451626224391e-11  1.9999999999705028e+02 -1.1944299780059968e-10 -2.5850877618310308e-10  1.9999999999716056e+02 -3.4453525928944288e-11 -9.0737176304422434e-11  1.9999999999534288e+02 -4.7319709731992446e-11 -1.1140723188758032e-10  1.9999999999529146e+02 2.8168750704191858e-11 -1.5402279635800595e-10  1.9999999999434718e+02 4.7297427230825353e-11 -1.7694384135260264e-10  1.9999999999447166e+02 2.8086150144158049e-11 -6.0150797127786488e-11  1.9999999999467707e+02 -1.3953267517780326e-10 9.7411112686555642e-11  1.9999999999530669e+02 4.2784672741290548e-11 -1.4983650297910875e-10  1.9999999999535896e+02 4.4123656550068331e-11 -7.3889025891026395e-11  1.9999999999353878e+02 -6.9334877022737979e-11 -1.1211316131951801e-10  1.9999999999347088e+02 3.6013088761290855e-11 -1.3740415416168534e-10  1.9999999999270926e+02 8.7597451049499685e-11 -1.7424852763707227e-11  1.9999999999287880e+02 -1.4692182785845362e-10 9.2670110039315223e-11  1.9999999999356723e+02 -9.2532335689702041e-12 -5.7858713305726117e-11  1.9999999999895610e+02 -1.2554079629246863e-10 -9.7876433772805525e-11  1.9999999999964874e+02 -9.1530858207417655e-11 -1.1508927163101675e-10  1.9999999999904355e+02 -1.0657202645705567e-10 -1.2788344516917885e-10  1.9999999999818110e+02 1.1610841941304042e-10 -2.6773399319459712e-10  1.9999999999812596e+02 3.5524919589017064e-12 -6.0309321634579761e-11  1.9999999999817143e+02 1.5303363930238733e-11 1.6680241424973189e-10  1.9999999999907382e+02 -3.5124981810371253e-11 -2.3995574099154188e-10  1.9999999999815239e+02 1.4090835000317106e-11 -1.0095862970570359e-10  1.9999999999819408e+02 -1.6072407115687852e-10 1.0726479849198914e-10  1.9999999999818749e+02 -4.7243725743847757e-11 -6.2578390442430210e-11  2.0000000000000455e+02 3.3228434602767571e-11 -1.2337186009457722e-10  2.0000000000055550e+02 -1.6589402125965786e-10 1.1153204432262496e-10  1.9999999999905765e+02 -2.9819770055297499e-11 -1.7094259627333331e-10  1.9999999999899475e+02 4.9870994944102666e-11 -5.6775496427242658e-11  1.9999999999966380e+02 -1.0384881960461739e-10 -8.1659796423159678e-11  1.9999999999991667e+02 2.3866401120151888e-11 -6.5053841472314150e-12  2.0000000000055240e+02 5.8359213185425922e-11 9.8822518189899492e-11  1.9999999999897898e+02 -6.3378317239320007e-11 -1.0434148482298652e-10  1.9999999999715953e+02 -4.8941401462118313e-11 -1.2618997137572453e-10  1.9999999999619769e+02 4.3577164379667446e-11 -1.5803179165544647e-10  1.9999999999711454e+02 1.4439038455597392e-11 -1.8982577082237292e-10  1.9999999999628523e+02 1.7912628187543317e-11 -5.4132157579875642e-11  1.9999999999646670e+02 -1.8419253098112504e-10 8.2366188185690847e-11  1.9999999999636046e+02 1.6440351192298154e-12 -2.3404705064826965e-11  1.9999999999648611e+02 -5.4935289726085862e-11 1.0889825439538762e-10  1.9999999999714458e+02 5.8587764634297451e-11 -1.8558988071600902e-10  1.9999999999727248e+02 2.9847671649059448e-11 -1.0155099759418894e-10  1.9999999999723309e+02 -5.8034504046638673e-11 -1.2016081073100062e-10  1.9999999999534799e+02 -4.9766193941775849e-11 -1.1467597889246824e-10  1.9999999999529516e+02 5.4772006855394783e-11 -1.2741697707049359e-10  1.9999999999432745e+02 2.8079413480788778e-11 -1.7059519160693380e-10  1.9999999999449281e+02 4.8095579267657178e-11 -2.2057406661398387e-11  1.9999999999464808e+02 -1.5730156349318917e-10 1.0755399370956126e-10  1.9999999999531875e+02 3.2756347355041963e-12 -2.3248734670965055e-10  1.9999999999542754e+02 5.5041755628751154e-11 -8.5243533923905141e-11  1.9999999999354105e+02 -5.3292014935689219e-11 -8.0699221085695717e-11  1.9999999999348128e+02 -1.3672437368055910e-11 -1.3254327360607362e-10  1.9999999999265941e+02 4.0979700485025086e-11 1.2926523203185366e-11  1.9999999999286459e+02 -1.4680139043732381e-10 8.1871220848662872e-11  1.9999999999349717e+02 6.7128195490073011e-12 -1.8909803772126023e-10  1.9999999999360188e+02 -6.8931954416242443e-13 -9.0275261748823559e-11  1.9999999999178570e+02 -1.0329392520779582e-10 -4.9380033563423917e-11  1.9999999999159721e+02 -2.3111217935329591e-10 -2.8155288885548884e-11  1.9999999999164550e+02 -1.0930070234239158e-10 -1.3785752941961235e-10  1.9999999999180338e+02 -5.8550710907854378e-11 -1.2194026170580513e-10  1.9999999999103812e+02 -1.1649007008815564e-10 8.7226975583583222e-11  1.9999999999902988e+02 -8.3625586878906786e-11 -1.3975888306729634e-10  1.9999999999814131e+02 1.9840618935281345e-10 -2.6889113495772536e-10  1.9999999999809879e+02 2.2307632231128976e-12 -6.9708825463587155e-11  1.9999999999819374e+02 1.5442794133397825e-11 1.1218574748838882e-10  1.9999999999904605e+02 1.0966205349755346e-11 -1.7899770946365760e-10  1.9999999999815788e+02 3.8141928575664617e-11 -4.0926048241045756e-11  1.9999999999818058e+02 -1.3265333042491283e-10 1.2350550356441239e-10  1.9999999999820000e+02 -5.1952200414617977e-11 -5.6352071737198327e-11  2.0000000000004783e+02 5.9349845389228598e-11 -9.4620293086012889e-11  2.0000000000056886e+02 -1.5213826281860792e-10 9.4712738078185388e-11  1.9999999999907826e+02 -4.2719534097103725e-11 -2.3413699493242119e-10  1.9999999999901974e+02 3.7181096289933849e-11 -7.7257129194155695e-11  1.9999999999962080e+02 -4.4140903331434883e-11 -1.2266272067303570e-10  1.9999999999990953e+02 -4.3957506147595566e-11 -6.9121274076407734e-11  2.0000000000057673e+02 4.4093819197163101e-11 9.7014453406155608e-11  1.9999999999901698e+02 -2.6270326890226190e-11 -9.2506081612283217e-11  2.0000000000003354e+02 -1.8595965192737024e-10 -9.1410720846423703e-11  1.9999999999713901e+02 -5.8739330542764404e-11 -9.9893317748747915e-11  1.9999999999620840e+02 4.8999544554359677e-11 -1.5539655172846432e-10  1.9999999999714393e+02 2.7594104413064115e-11 -2.0165294604541566e-10  1.9999999999626041e+02 4.2226843857520912e-11 -7.3876116610444314e-11  1.9999999999645624e+02 -1.5285852811108380e-10 8.9153566571324512e-11  1.9999999999632178e+02 -1.4363018215905171e-11 2.1251161750984469e-11  1.9999999999715075e+02 1.0215005809144378e-10 -1.7733941237534838e-10  1.9999999999719844e+02 3.1058887404904436e-11 -9.5753374433832774e-11  1.9999999999534361e+02 -3.3243697543151833e-11 -1.3318665052815702e-10  1.9999999999532534e+02 4.0296339287061899e-12 -2.1996772422404080e-10  1.9999999999439001e+02 2.7719668556671363e-11 -1.8529922945927400e-10  1.9999999999448602e+02 4.1494885178473561e-11 -9.4422539325808886e-11  1.9999999999466661e+02 -1.4977461409974754e-10 7.5585799003976237e-11  1.9999999999455542e+02 -6.9211957494006593e-11 -2.8160879676874499e-11  1.9999999999466701e+02 -2.0292851861038785e-11 9.8932125960883599e-11  1.9999999999527748e+02 5.9409512358752401e-11 -1.7420200886240620e-10  1.9999999999544676e+02 4.3717298933894837e-11 -8.1343900039597462e-11  1.9999999999353759e+02 -5.0180778461670985e-11 -1.1803604556698141e-10  1.9999999999346912e+02 1.1717694508309003e-11 -1.8025087593688362e-10  1.9999999999260868e+02 5.8645741245354413e-11 -1.5294207247688477e-10  1.9999999999269755e+02 -2.4308527955961339e-12 -4.7061114264463071e-11  1.9999999999286865e+02 -1.4086251308298538e-10 9.2013497640053562e-11  1.9999999999273209e+02 -5.2844542964054298e-11 -1.3137121615160645e-12  1.9999999999289537e+02 -4.3020888843031719e-11 1.0703032516340535e-10  1.9999999999355401e+02 4.1931183629905372e-12 -1.8124713895593100e-10  1.9999999999360676e+02 3.8328117068646456e-11 -7.4441608208850362e-11  1.9999999999170510e+02 -5.7680985872749684e-11 -1.4514861351379929e-10  1.9999999999168591e+02 -5.3272115209207516e-11 -1.5946862187862609e-10  1.9999999999164777e+02 1.9953468021808618e-11 -1.9639924660038090e-10  1.9999999999176777e+02 -2.3776096724577261e-11 -1.3509669702886628e-10  1.9999999999902732e+02 -7.3093982507316088e-11 -1.2333217650943052e-10  1.9999999999812405e+02 1.4904664502470425e-10 -2.8535892919434358e-10  1.9999999999815813e+02 7.2800149372982332e-12 -2.6450401770260921e-11  1.9999999999818183e+02 1.0716071477045940e-11 1.4109839631810638e-10  1.9999999999905774e+02 -1.2029805359171263e-11 -1.5737170956685828e-10  1.9999999999818459e+02 5.5670597565849116e-12 -6.2505407769549560e-11  1.9999999999816654e+02 -1.7573025326897166e-10 1.2046584388675947e-10  1.9999999999820076e+02 2.4496686571264294e-11 -4.6198042132705368e-11  2.0000000000008188e+02 7.7740667860474217e-11 -8.7824085755105496e-11  2.0000000000056323e+02 -1.4108391034252219e-10 1.0987202931387121e-10  1.9999999999905322e+02 -4.7292365289178950e-11 -1.8495224925890714e-10  1.9999999999901397e+02 3.9489146673882321e-11 -5.9363242477268673e-11  1.9999999999967298e+02 -4.9709764960089623e-11 -9.9367891984864029e-11  1.9999999999995239e+02 -1.3633297090918787e-11 -3.8576219954649215e-11  2.0000000000057395e+02 7.4149858661029062e-11 1.1786979584130169e-10  2.0000000000000543e+02 -1.4307592267715706e-10 -2.3941641503915066e-11  1.9999999999717213e+02 -3.6761616652076228e-11 -9.9299517848382655e-11  1.9999999999617410e+02 7.4049065346191167e-11 -1.7489294806327911e-10  1.9999999999712151e+02 5.4254206799356801e-11 -1.3709750671259339e-10  1.9999999999624944e+02 5.4811783185133585e-11 -4.1753550080488511e-11  1.9999999999645635e+02 -1.4721444160729251e-10 9.3169103484230929e-11  1.9999999999634809e+02 -5.0987765022393251e-11 -2.5200299033229748e-12  1.9999999999643705e+02 -2.4695551188328246e-11 1.3152980236857039e-10  1.9999999999713344e+02 9.4169986461557994e-11 -1.9668518445249848e-10  1.9999999999726307e+02 4.4333754557253412e-11 -1.1923460156597453e-10  1.9999999999725043e+02 -5.8472480342317171e-11 -7.8016387627403448e-11  1.9999999999531437e+02 -1.1058302638942958e-11 -1.2114418231391905e-10  1.9999999999439089e+02 2.2402743496610035e-11 -1.2924445163211889e-10  1.9999999999532628e+02 3.4969560753864068e-11 -1.3080149497032577e-10  1.9999999999451038e+02 5.0877325446312547e-11 -6.0178963692728660e-12  1.9999999999466934e+02 -1.5810125921638382e-10 9.0990242455382545e-11  1.9999999999458603e+02 -3.3223381545151162e-11 7.5761642009600177e-12  1.9999999999468841e+02 -7.2868668623913032e-11 1.3718470180017795e-10  1.9999999999528802e+02 4.6437570522813337e-12 -1.7102816455002158e-10  1.9999999999541203e+02 4.2571013040550408e-11 -6.3599894521226494e-11  1.9999999999540131e+02 -1.9524841910023963e-11 -1.0455773305156373e-10  1.9999999999355416e+02 -7.0152679528107116e-11 -1.1414140984700123e-10  1.9999999999258398e+02 1.9402278852971970e-11 -2.1393994861831989e-10  1.9999999999269971e+02 -3.1116341505216301e-11 -6.7177190394999901e-11  1.9999999999290219e+02 -2.4507239176834998e-11 1.2377568000618398e-10  1.9999999999348492e+02 4.4845902555194365e-11 -1.6610703076074011e-10  1.9999999999269687e+02 1.3959397742181966e-11 -7.0300343825941874e-11  1.9999999999286140e+02 -1.7094702462457164e-10 7.4916055908097710e-11  1.9999999999273913e+02 -2.8337461155370676e-11 -6.7984353545346873e-12  1.9999999999347116e+02 5.9393833063197790e-12 -1.6087316037465078e-10  1.9999999999356911e+02 6.4999115362577103e-11 -5.0387239006708101e-11  1.9999999999356064e+02 -4.7995282788597851e-11 -6.6770948707825944e-11  1.9999999999171337e+02 -2.8696990399366576e-11 -8.8642454468798368e-11  1.9999999999165627e+02 -7.3844177864088508e-11 -1.5322672870279247e-10  1.9999999999901911e+02 -8.2654979334924698e-11 -1.0006606374133925e-10  1.9999999999813741e+02 1.5284206115189174e-10 -2.5421283129215573e-10  1.9999999999810333e+02 5.7214553918685299e-13 -9.8844174258073369e-11  1.9999999999817530e+02 -2.6812450364403883e-11 1.5776080665076242e-10  1.9999999999906626e+02 4.7631993791904004e-11 -1.9297442766215579e-10  1.9999999999817538e+02 2.6389615763230510e-11 -1.3335260068101487e-11  1.9999999999816706e+02 -1.2636294369507169e-10 9.5152576080377544e-11  1.9999999999817001e+02 -2.6052109316181413e-11 -7.3518668978532436e-11  2.0000000000005991e+02 8.2521771426401406e-11 -1.1831156923769394e-10  2.0000000000057699e+02 -7.7578988982615129e-11 1.1247356288066801e-10  1.9999999999908917e+02 -6.9786027440425156e-11 -2.4005356426103036e-10  1.9999999999904111e+02 1.2297044716087290e-10 -8.0132061002506725e-11  1.9999999999964732e+02 -6.1052369135905425e-12 -1.2062784484798777e-10  1.9999999999990078e+02 -2.2902378510424692e-11 -2.8660995186817591e-11  2.0000000000056355e+02 4.2750177207766269e-11 9.5612730891742349e-11  1.9999999999895707e+02 -5.8480462837384993e-11 -7.4315234726486518e-11  2.0000000000005318e+02 -1.7968508651435587e-10 -7.7384912954472504e-11  1.9999999999714780e+02 -3.1442727951147994e-11 -9.5716114086818330e-11  1.9999999999619556e+02 8.6520509599752155e-11 -1.4727223275671206e-10  1.9999999999626641e+02 -4.2405159259788365e-11 -4.0772867839770230e-11  1.9999999999648236e+02 -3.7400101576881086e-11 1.3611070129780688e-10  1.9999999999708547e+02 3.0712598915017697e-11 -1.6929594473910499e-10  1.9999999999631626e+02 3.8750940734527998e-11 -5.1862345194040311e-11  1.9999999999646121e+02 -1.4045936299264019e-10 1.0656767533134939e-10  1.9999999999633363e+02 1.2884440427173963e-12 -1.0210846018105623e-11  1.9999999999714149e+02 6.9051787806170174e-11 -1.6832495215752754e-10  1.9999999999722090e+02 3.3215084491763374e-11 -1.2816653592145535e-10  1.9999999999723917e+02 -3.8146079090155840e-11 -8.5768658008567425e-11  1.9999999999532938e+02 -5.1827802894073172e-11 -1.0459682626723054e-10  1.9999999999439530e+02 2.7473123956381784e-11 -1.7224316473867573e-10  1.9999999999447309e+02 -2.6733637974524340e-11 -5.1123860115276109e-11  1.9999999999466633e+02 -3.5287051644303134e-11 1.3423417231208016e-10  1.9999999999528475e+02 4.7112650069871466e-11 -1.6142527893815362e-10  1.9999999999449480e+02 5.9045247057193680e-11 -8.8715078197105812e-11  1.9999999999462142e+02 -1.4045483583932305e-10 1.1735472277023281e-10  1.9999999999454747e+02 -3.0983626785591781e-12 3.5691161839952113e-11  1.9999999999529325e+02 4.6022825877419041e-11 -1.9997310417670407e-10  1.9999999999542328e+02 4.3347139499981237e-11 -7.2263067173236705e-11  1.9999999999520989e+02 -1.2023594333310767e-11 -2.0262211031862716e-10  1.9999999999536578e+02 -1.1936991104792695e-11 -4.5620158851881435e-11  1.9999999999352750e+02 -3.6993618955897736e-11 -1.3774011483931161e-10  1.9999999999346301e+02 2.0502966485788859e-12 -1.9359664548680122e-10  1.9999999999348003e+02 7.1979399742621172e-11 -1.8796140856997165e-10  1.9999999999359483e+02 6.7822082409651328e-11 -1.1299925029908283e-10  1.9999999999899515e+02 -6.3038411382395209e-11 -7.6193635367380930e-11  1.9999999999810032e+02 1.6964738224510016e-10 -2.2526970074555735e-10  1.9999999999815736e+02 -1.3067308134174070e-11 -4.6385269783097867e-11  1.9999999999818604e+02 -4.9085701146691675e-11 1.2091178353568149e-10  1.9999999999902383e+02 -1.9674472783239478e-10 -1.6258303345648258e-1