<?xml version="1.0"?>
<VTKFile type="UnstructuredGrid"  version="0.1"  >
<UnstructuredGrid>
<Piece  NumberOfPoints="4029" NumberOfCells="19865">
<Points>
<DataArray  type="Float64"  NumberOfComponents="3"  format="ascii">0 37.5 30  1.25 38.75 30  1.25 37.5 30  1.25 38.75 28.75  2.5 37.5 30  2.5 38.75 30  2.5 40 30  0 37.5 27.5  0 38.75 28.75  0 37.5 28.75  0 38.75 30  0 40 30  1.25 40 30  7.5 37.5 30  7.5 38.75 30  7.5 38.75 28.75  6.25 38.75 28.75  7.5 40 30  5 37.5 30  6.25 38.75 30  6.25 37.5 30  5 38.75 30  5 40 30  6.25 40 30  10 37.5 30  10 38.75 30  10 38.75 28.75  8.75 38.75 28.75  10 40 30  8.75 38.75 30  8.75 37.5 30  8.75 40 30  11.25 38.75 30  11.25 38.75 28.75  11.25 40 30  12.5 40 30  7.5 30 32.5  7.5 28.75 32.5  7.5 28.75 31.25  6.25 28.75 31.25  7.5 27.5 32.5  6.25 28.75 32.5  5 30 32.5  6.25 30 32.5  10 27.5 32.5  10 28.75 32.5  8.75 28.75 32.5  8.75 28.75 31.25  10 30 32.5  8.75 30 32.5  0 30 32.5  1.25 31.25 32.5  1.25 30 32.5  1.25 31.25 31.25  2.5 30 32.5  2.5 31.25 32.5  2.5 32.5 32.5  0 31.25 32.5  0 31.25 31.25  0 32.5 32.5  1.25 32.5 32.5  0 32.5 30  1.25 32.5 31.25  0 32.5 31.25  0 31.25 30  2.5 35 32.5  2.5 35 31.25  2.5 33.75 31.25  1.25 33.75 31.25  2.5 33.75 32.5  1.25 33.75 32.5  1.25 35 31.25  0 33.75 31.25  0 33.75 32.5  0 35 32.5  1.25 35 32.5  0 33.75 30  0 35 30  0 35 31.25  5 35 32.5  5 35 31.25  5 33.75 31.25  3.75 33.75 31.25  5 32.5 32.5  5 33.75 32.5  3.75 33.75 32.5  3.75 32.5 32.5  3.75 35 31.25  3.75 35 32.5  7.5 35 30  7.5 35 31.25  7.5 33.75 31.25  6.25 33.75 31.25  7.5 35 32.5  7.5 32.5 32.5  7.5 33.75 32.5  6.25 33.75 32.5  6.25 32.5 32.5  6.25 35 31.25  6.25 35 32.5  10 35 30  10 35 31.25  10 33.75 31.25  8.75 33.75 31.25  10 35 32.5  10 32.5 32.5  10 33.75 32.5  8.75 33.75 32.5  8.75 32.5 32.5  8.75 35 31.25  8.75 35 32.5  2.5 37.5 31.25  2.5 36.25 31.25  1.25 36.25 31.25  2.5 37.5 32.5  2.5 36.25 32.5  1.25 36.25 32.5  1.25 37.5 31.25  0 36.25 31.25  0 36.25 32.5  0 37.5 32.5  1.25 37.5 32.5  0 36.25 30  0 37.5 31.25  5 37.5 31.25  5 36.25 31.25  3.75 36.25 31.25  5 37.5 32.5  5 36.25 32.5  3.75 36.25 32.5  3.75 37.5 31.25  3.75 37.5 30  3.75 37.5 32.5  7.5 37.5 31.25  7.5 36.25 31.25  6.25 36.25 31.25  7.5 37.5 32.5  7.5 36.25 32.5  6.25 36.25 32.5  6.25 37.5 31.25  6.25 37.5 32.5  10 36.25 31.25  10 36.25 30  8.75 36.25 31.25  10 37.5 31.25  10 37.5 32.5  10 36.25 32.5  8.75 36.25 32.5  8.75 37.5 31.25  8.75 37.5 32.5  1.25 38.75 31.25  2.5 38.75 31.25  2.5 40 31.25  2.5 40 32.5  2.5 38.75 32.5  1.25 38.75 32.5  1.25 40 31.25  0 38.75 31.25  0 38.75 32.5  0 40 32.5  1.25 40 32.5  0 40 31.25  3.75 38.75 31.25  3.75 38.75 30  5 38.75 31.25  5 40 31.25  5 40 32.5  5 38.75 32.5  3.75 38.75 32.5  3.75 40 31.25  3.75 40 30  3.75 40 32.5  6.25 38.75 31.25  7.5 38.75 31.25  7.5 40 31.25  7.5 40 32.5  7.5 38.75 32.5  6.25 38.75 32.5  6.25 40 31.25  6.25 40 32.5  8.75 38.75 31.25  10 38.75 31.25  10 40 31.25  10 40 32.5  10 38.75 32.5  8.75 38.75 32.5  8.75 40 31.25  8.75 40 32.5  11.25 38.75 31.25  11.25 40 31.25  12.5 40 31.25  12.5 40 32.5  11.25 38.75 32.5  11.25 40 32.5  1.25 41.25 31.25  1.25 41.25 30  2.5 41.25 31.25  2.5 41.25 30  2.5 42.5 30  2.5 42.5 31.25  2.5 42.5 32.5  2.5 41.25 32.5  1.25 41.25 32.5  0 41.25 30  0 42.5 30  1.25 42.5 31.25  1.25 42.5 30  0 41.25 31.25  0 41.25 32.5  0 42.5 32.5  1.25 42.5 32.5  0 42.5 31.25  3.75 41.25 31.25  3.75 41.25 30  5 41.25 31.25  5 41.25 30  5 42.5 30  5 42.5 31.25  5 42.5 32.5  5 41.25 32.5  3.75 41.25 32.5  3.75 42.5 31.25  3.75 42.5 30  3.75 42.5 32.5  6.25 41.25 31.25  6.25 41.25 30  7.5 41.25 31.25  7.5 41.25 30  7.5 42.5 30  7.5 42.5 31.25  7.5 42.5 32.5  7.5 41.25 32.5  6.25 41.25 32.5  6.25 42.5 31.25  6.25 42.5 30  6.25 42.5 32.5  8.75 41.25 31.25  8.75 41.25 30  10 41.25 31.25  10 41.25 30  10 42.5 30  10 42.5 31.25  10 42.5 32.5  10 41.25 32.5  8.75 41.25 32.5  8.75 42.5 31.25  8.75 42.5 30  8.75 42.5 32.5  11.25 41.25 31.25  11.25 41.25 30  12.5 41.25 31.25  12.5 41.25 30  12.5 42.5 30  12.5 42.5 31.25  12.5 42.5 32.5  12.5 41.25 32.5  11.25 41.25 32.5  11.25 42.5 31.25  11.25 42.5 30  11.25 42.5 32.5  13.75 41.25 31.25  13.75 41.25 30  13.75 41.25 32.5  13.75 42.5 32.5  13.75 42.5 31.25  1.25 43.75 31.25  1.25 43.75 30  2.5 43.75 31.25  2.5 43.75 30  2.5 45 30  2.5 45 31.25  2.5 45 32.5  2.5 43.75 32.5  1.25 43.75 32.5  0 43.75 30  0 45 30  1.25 45 31.25  1.25 45 30  0 43.75 31.25  0 43.75 32.5  0 45 32.5  1.25 45 32.5  0 45 31.25  3.75 43.75 31.25  3.75 43.75 30  5 43.75 31.25  5 43.75 30  5 45 30  5 45 31.25  5 45 32.5  5 43.75 32.5  3.75 43.75 32.5  3.75 45 31.25  3.75 45 30  3.75 45 32.5  6.25 43.75 31.25  6.25 43.75 30  7.5 43.75 31.25  7.5 43.75 30  7.5 45 30  7.5 45 31.25  7.5 45 32.5  7.5 43.75 32.5  6.25 43.75 32.5  6.25 45 31.25  6.25 45 30  6.25 45 32.5  8.75 43.75 31.25  8.75 43.75 30  10 43.75 31.25  10 43.75 30  10 45 30  10 45 31.25  10 45 32.5  10 43.75 32.5  8.75 43.75 32.5  8.75 45 31.25  8.75 45 30  8.75 45 32.5  11.25 43.75 31.25  11.25 43.75 30  12.5 43.75 31.25  12.5 43.75 30  12.5 45 30  12.5 45 31.25  12.5 45 32.5  12.5 43.75 32.5  11.25 43.75 32.5  11.25 45 31.25  11.25 45 30  11.25 45 32.5  13.75 43.75 31.25  13.75 43.75 32.5  13.75 43.75 30  13.75 45 31.25  13.75 45 30  13.75 45 32.5  1.25 46.25 31.25  1.25 46.25 30  2.5 46.25 31.25  2.5 46.25 30  2.5 47.5 30  2.5 47.5 31.25  2.5 47.5 32.5  2.5 46.25 32.5  1.25 46.25 32.5  0 46.25 30  0 47.5 30  1.25 47.5 31.25  1.25 47.5 30  0 46.25 31.25  0 46.25 32.5  0 47.5 32.5  1.25 47.5 32.5  0 47.5 31.25  3.75 46.25 31.25  3.75 46.25 30  5 46.25 31.25  5 46.25 30  5 47.5 30  5 47.5 31.25  5 47.5 32.5  5 46.25 32.5  3.75 46.25 32.5  3.75 47.5 31.25  3.75 47.5 30  3.75 47.5 32.5  6.25 46.25 31.25  6.25 46.25 30  7.5 46.25 31.25  7.5 46.25 30  7.5 47.5 30  7.5 47.5 31.25  7.5 47.5 32.5  7.5 46.25 32.5  6.25 46.25 32.5  6.25 47.5 31.25  6.25 47.5 30  6.25 47.5 32.5  8.75 46.25 31.25  8.75 46.25 30  10 46.25 31.25  10 46.25 30  10 47.5 30  10 47.5 31.25  10 47.5 32.5  10 46.25 32.5  8.75 46.25 32.5  8.75 47.5 31.25  8.75 47.5 30  8.75 47.5 32.5  11.25 46.25 31.25  11.25 46.25 30  12.5 46.25 31.25  12.5 46.25 30  12.5 47.5 30  12.5 47.5 31.25  12.5 47.5 32.5  12.5 46.25 32.5  11.25 46.25 32.5  11.25 47.5 31.25  11.25 47.5 30  11.25 47.5 32.5  13.75 46.25 31.25  13.75 46.25 30  13.75 46.25 32.5  13.75 47.5 31.25  13.75 47.5 30  13.75 47.5 32.5  1.25 48.75 31.25  1.25 48.75 30  2.5 48.75 31.25  2.5 48.75 30  2.5 50 30  2.5 50 31.25  2.5 50 32.5  2.5 48.75 32.5  1.25 48.75 32.5  0 48.75 30  0 50 30  1.25 50 31.25  1.25 50 30  0 48.75 31.25  0 48.75 32.5  0 50 32.5  1.25 50 32.5  0 50 31.25  3.75 48.75 31.25  3.75 48.75 30  5 48.75 31.25  5 48.75 30  5 50 30  5 50 31.25  5 50 32.5  5 48.75 32.5  3.75 48.75 32.5  3.75 50 31.25  3.75 50 30  3.75 50 32.5  6.25 48.75 31.25  6.25 48.75 30  7.5 48.75 31.25  7.5 48.75 30  7.5 50 30  7.5 50 31.25  7.5 50 32.5  7.5 48.75 32.5  6.25 48.75 32.5  6.25 50 31.25  6.25 50 30  6.25 50 32.5  8.75 48.75 31.25  8.75 48.75 30  10 48.75 31.25  10 48.75 30  10 50 30  10 50 31.25  10 50 32.5  10 48.75 32.5  8.75 48.75 32.5  8.75 50 31.25  8.75 50 30  8.75 50 32.5  11.25 48.75 31.25  12.5 48.75 31.25  12.5 48.75 32.5  12.5 50 32.5  11.25 48.75 32.5  11.25 50 32.5  11.25 50 31.25  13.75 48.75 31.25  13.75 48.75 32.5  7.5 28.75 33.75  6.25 28.75 33.75  7.5 30 33.75  7.5 30 35  7.5 27.5 35  7.5 28.75 35  6.25 28.75 35  6.25 30 33.75  5 30 35  6.25 30 35  5 30 33.75  10 28.75 33.75  8.75 28.75 33.75  10 30 33.75  10 30 35  10 27.5 33.75  10 27.5 35  10 28.75 35  8.75 28.75 35  8.75 27.5 35  8.75 30 33.75  8.75 30 35  1.25 31.25 33.75  2.5 31.25 33.75  2.5 32.5 33.75  2.5 32.5 35  2.5 30 33.75  2.5 30 35  2.5 31.25 35  0 30 35  1.25 31.25 35  1.25 30 35  1.25 32.5 33.75  0 31.25 35  0 31.25 33.75  0 32.5 35  1.25 32.5 35  0 32.5 33.75  3.75 31.25 33.75  3.75 31.25 32.5  3.75 30 32.5  5 31.25 33.75  5 31.25 32.5  5 32.5 33.75  5 32.5 35  3.75 30 33.75  5 31.25 35  3.75 31.25 35  3.75 30 35  3.75 32.5 33.75  3.75 32.5 35  6.25 31.25 33.75  6.25 31.25 32.5  7.5 31.25 33.75  7.5 31.25 32.5  7.5 32.5 33.75  7.5 32.5 35  7.5 31.25 35  6.25 31.25 35  6.25 32.5 33.75  6.25 32.5 35  8.75 31.25 33.75  8.75 31.25 32.5  10 31.25 33.75  10 31.25 32.5  10 32.5 33.75  10 32.5 35  10 31.25 35  8.75 31.25 35  8.75 32.5 33.75  8.75 32.5 35  1.25 33.75 33.75  2.5 33.75 33.75  2.5 35 33.75  2.5 35 35  2.5 33.75 35  1.25 33.75 35  1.25 35 33.75  0 33.75 33.75  0 33.75 35  0 35 35  1.25 35 35  0 35 33.75  3.75 33.75 33.75  5 33.75 33.75  5 35 33.75  5 35 35  5 33.75 35  3.75 33.75 35  3.75 35 33.75  3.75 35 35  6.25 33.75 33.75  7.5 33.75 33.75  7.5 35 33.75  7.5 35 35  7.5 33.75 35  6.25 33.75 35  6.25 35 33.75  6.25 35 35  8.75 33.75 33.75  10 33.75 33.75  10 35 33.75  10 35 35  10 33.75 35  8.75 33.75 35  8.75 35 33.75  8.75 35 35  1.25 36.25 33.75  2.5 36.25 33.75  2.5 37.5 33.75  2.5 37.5 35  2.5 36.25 35  1.25 36.25 35  1.25 37.5 33.75  0 36.25 33.75  0 36.25 35  0 37.5 35  1.25 37.5 35  0 37.5 33.75  3.75 36.25 33.75  5 36.25 33.75  5 37.5 33.75  5 37.5 35  5 36.25 35  3.75 36.25 35  3.75 37.5 33.75  3.75 37.5 35  6.25 36.25 33.75  7.5 36.25 33.75  7.5 37.5 33.75  7.5 37.5 35  7.5 36.25 35  6.25 36.25 35  6.25 37.5 33.75  6.25 37.5 35  8.75 36.25 33.75  10 36.25 33.75  10 37.5 33.75  10 37.5 35  10 36.25 35  8.75 36.25 35  8.75 37.5 33.75  8.75 37.5 35  1.25 38.75 33.75  2.5 38.75 33.75  2.5 40 33.75  2.5 40 35  2.5 38.75 35  1.25 38.75 35  1.25 40 33.75  0 38.75 33.75  0 38.75 35  0 40 35  1.25 40 35  0 40 33.75  3.75 38.75 33.75  5 38.75 33.75  5 40 33.75  5 40 35  5 38.75 35  3.75 38.75 35  3.75 40 33.75  3.75 40 35  6.25 38.75 33.75  7.5 38.75 33.75  7.5 40 33.75  7.5 40 35  7.5 38.75 35  6.25 38.75 35  6.25 40 33.75  6.25 40 35  8.75 38.75 33.75  10 38.75 33.75  10 40 33.75  10 40 35  10 38.75 35  8.75 38.75 35  8.75 40 33.75  8.75 40 35  11.25 38.75 33.75  11.25 40 33.75  12.5 40 33.75  12.5 40 35  11.25 38.75 35  11.25 40 35  1.25 41.25 33.75  2.5 41.25 33.75  2.5 42.5 33.75  2.5 42.5 35  2.5 41.25 35  1.25 41.25 35  1.25 42.5 
[...]
<PointData  Vectors="u"> 
<DataArray  type="Float64"  Name="u"  NumberOfComponents="3" format="ascii">2.0000000000054948e+02 9.1829752664774731e-11 4.0603358974615689e-11  1.9999999999903227e+02 -1.0676825029463521e-10 -2.3666773113516905e-10  1.9999999999898876e+02 -1.4812056946979135e-11 -4.5140092496534162e-11  1.9999999999899401e+02 -1.1001086202170613e-10 -4.5708679122137356e-11  1.9999999999820292e+02 1.1761747118505224e-10 1.1602675503740828e-10  1.9999999999816990e+02 -4.4434228434362065e-11 -1.0213905108390665e-10  1.9999999999820298e+02 1.4862197964088616e-10 4.1370991690002329e-11  2.0000000000057057e+02 1.3798829752419870e-10 5.5023655974070432e-11  1.9999999999970134e+02 -5.3182143275619734e-11 -4.7250574282485359e-11  2.0000000000002635e+02 -1.1979947632084508e-10 -1.1387368284837629e-11  2.0000000000001310e+02 -4.6084249723936427e-11 -1.4484652148070027e-10  2.0000000000057756e+02 1.0979538749948463e-10 -1.5688749424932514e-11  1.9999999999899535e+02 -1.3359275162490623e-10 1.0863116607001880e-11  1.9999999999462605e+02 7.3763460247673663e-11 8.9374765216298814e-11  1.9999999999453661e+02 -4.7398006163586881e-11 -6.9880827486331521e-13  1.9999999999425870e+02 -1.2158268805954507e-10 -5.6439312746194640e-11  1.9999999999530772e+02 -1.2055363102440265e-10 -5.2946836877959994e-11  1.9999999999465214e+02 1.6025402273840774e-10 4.9623801504262410e-11  1.9999999999641955e+02 7.5119210006035605e-11 7.5929553054566207e-11  1.9999999999531406e+02 -1.1243444602220411e-10 -2.3107441430401174e-10  1.9999999999543601e+02 -3.4689754036594547e-11 -7.5144593479677352e-11  1.9999999999632846e+02 -3.8616924029053303e-11 -4.1303837907688047e-11  1.9999999999647477e+02 1.4917970423329454e-10 2.8662518734281762e-11  1.9999999999537516e+02 -7.3813575369973567e-11 2.6532193938261221e-11  1.9999999999285396e+02 6.5471669373951083e-11 9.5644301498181247e-11  1.9999999999270574e+02 -6.3689949944086699e-11 -1.9215897920431561e-11  1.9999999999241737e+02 -1.0616994664190251e-10 -5.1654902510118649e-11  1.9999999999354532e+02 -1.0004137858048205e-10 -4.7071823851809726e-11  1.9999999999283096e+02 1.3296819944366769e-10 9.5338508481509766e-12  1.9999999999350354e+02 -9.9160538428404617e-11 -2.3343579955443780e-10  1.9999999999359159e+02 -5.1661026312193063e-11 1.2206726384408981e-11  1.9999999999357021e+02 -8.8569492001765257e-11 1.9063616755409124e-11  1.9999999999172366e+02 -5.7856931394991402e-11 -2.4774422647061460e-10  1.9999999999174000e+02 -3.2903084336269612e-11 -3.2738090726879332e-11  1.9999999999176416e+02 -1.1446902602420953e-10 6.8974114741428238e-11  1.9999999999108621e+02 9.6965548551453466e-11 3.1907696169282678e-11  1.9999999999467457e+02 -3.3073024127417741e-11 1.1455776893726462e-10  1.9999999999453985e+02 -8.6727697600165342e-11 4.3421511515492074e-12  1.9999999999437338e+02 7.2959703673682466e-11 -1.6633688807628906e-10  1.9999999999532884e+02 -6.7009515030805687e-11 -1.1377990983711954e-10  1.9999999999465473e+02 -1.1939592080360940e-10 1.1923359803311887e-10  1.9999999999529038e+02 3.4860807983273772e-11 -2.1393545602553501e-10  1.9999999999646764e+02 -5.0943922185521660e-11 1.3354964184512215e-10  1.9999999999537707e+02 -4.6418552293890406e-11 -1.0676122773728388e-10  1.9999999999285328e+02 -1.3072271162480034e-10 1.3719608594582283e-10  1.9999999999261783e+02 -3.8952380196930788e-11 1.0011368038723918e-10  1.9999999999349501e+02 1.6428578820615650e-11 -1.7720577021718524e-10  1.9999999999347696e+02 -3.9908122978082328e-11 -9.5996711977379809e-11  1.9999999999290796e+02 2.7559418081188569e-11 1.3114269211861049e-10  1.9999999999360369e+02 -1.2892396395389873e-11 -1.1707929436766068e-10  2.0000000000057562e+02 3.0876188304498313e-11 1.0067742401083245e-10  1.9999999999899927e+02 -1.4426218901307511e-10 -2.2466722536601290e-10  1.9999999999899839e+02 -3.1399227709970434e-11 -1.3250554680566982e-10  1.9999999999894800e+02 -1.4060141129689190e-10 -1.3820568145774398e-10  1.9999999999819175e+02 -3.1330979787605888e-11 1.4226520563046650e-10  1.9999999999813789e+02 -4.5599956479070243e-11 -1.0391384399789558e-10  1.9999999999821088e+02 1.5387032989603485e-10 9.3157939045984389e-11  2.0000000000002879e+02 -8.5511977388547809e-11 -1.2372968760019445e-10  1.9999999999958612e+02 -1.0150676475057035e-10 -1.3052751517003461e-10  2.0000000000059936e+02 1.0106494550283966e-10 7.0999153761436927e-11  1.9999999999897815e+02 -1.2756682148559908e-11 -1.8491308783210597e-11  2.0000000000055425e+02 7.6189494930227842e-11 7.0746506875470060e-11  1.9999999999903551e+02 -1.6562166950599537e-10 -1.9588046047671756e-10  2.0000000000008839e+02 -9.0691456972508775e-11 -1.0445547667867342e-10  2.0000000000000719e+02 -5.4464002772740420e-11 -1.0379683738714726e-10  1.9999999999821082e+02 8.7247251116137055e-11 1.0233553171827430e-10  1.9999999999816819e+02 -9.5136339534425762e-11 -5.4172336200712878e-11  1.9999999999811607e+02 -2.5049719065056939e-10 -2.4122854343997442e-10  1.9999999999897821e+02 -1.2867782029636545e-10 -1.2694793906659447e-10  1.9999999999816754e+02 -3.0439180843224639e-11 -1.3263926420250352e-10  1.9999999999906558e+02 -1.8789974632133988e-10 -2.6866655369996740e-10  1.9999999999903679e+02 -2.3991239648683355e-10 -1.8293888256303670e-10  1.9999999999955784e+02 -5.8138181014626876e-11 -1.1939244472229871e-10  2.0000000000003524e+02 -8.6639211275554711e-11 -1.1542945239667713e-10  2.0000000000056485e+02 5.7155177097931174e-11 4.5757522873307580e-11  1.9999999999902849e+02 -2.3484251376008952e-11 -2.7416825245086245e-11  2.0000000000003561e+02 -1.1053306206776684e-10 -6.6672983677315749e-11  2.0000000000059882e+02 6.4954966771826620e-11 1.2238161199458866e-10  2.0000000000003737e+02 -1.2861060042996150e-10 -7.5993334099822062e-11  1.9999999999644544e+02 8.2424285324654558e-11 4.7511128725433711e-11  1.9999999999633431e+02 -2.7367363030712962e-11 -5.0058904513726523e-11  1.9999999999613783e+02 -1.6265717712375527e-10 -1.8104213436157205e-10  1.9999999999715524e+02 -1.0537850045970698e-10 -1.2163275298427807e-10  1.9999999999644044e+02 9.8326397760028597e-11 3.2228133153109700e-11  1.9999999999634110e+02 -4.9423788018737888e-11 -3.7153213675062611e-11  1.9999999999711179e+02 -1.7190765687841664e-10 -2.4975817460040483e-10  1.9999999999716985e+02 4.7308501223149724e-12 -6.3405186782337591e-11  1.9999999999714794e+02 -2.3299131309589677e-10 -1.6685839251814388e-10  1.9999999999717582e+02 -2.5167322979540587e-11 -2.5724418572437716e-11  1.9999999999463381e+02 6.9340194258545225e-11 1.1914990703728561e-10  1.9999999999454627e+02 -2.7553908889197776e-11 -1.5922816726488568e-10  1.9999999999434013e+02 -8.0041645404411188e-11 -1.7135413736561203e-10  1.9999999999535831e+02 -9.4999825403557617e-11 -1.6210386965459325e-10  1.9999999999465371e+02 7.4213121859311636e-11 7.0961697377733601e-11  1.9999999999468508e+02 7.9310228647047699e-11 8.7052630924106075e-11  1.9999999999456404e+02 -1.4554633406063425e-11 -3.0283424608896557e-11  1.9999999999534663e+02 -1.1333916231525948e-10 -2.2896741756320289e-10  1.9999999999541441e+02 -4.1782814996558172e-13 8.0298551943453343e-12  1.9999999999536729e+02 -2.2011880125109596e-10 -1.7525328347183342e-10  1.9999999999543800e+02 -3.7576063195126281e-11 -5.8649941370868777e-11  1.9999999999284151e+02 9.6278312102301288e-11 7.9598813801446851e-11  1.9999999999272151e+02 -7.7221186297905546e-12 -3.0804133292457539e-11  1.9999999999263943e+02 -1.5090341770155989e-10 -1.1601152050058531e-10  1.9999999999353551e+02 -1.1426066776080387e-10 -1.1102414245276112e-10  1.9999999999290881e+02 8.7108058512866301e-11 7.1491624171714589e-11  1.9999999999289048e+02 8.1967600220960647e-11 7.9795607376966822e-11  1.9999999999267948e+02 -5.8851919434550079e-11 1.9104863140988288e-12  1.9999999999351806e+02 -1.4527984469326979e-10 -2.1795718700216499e-10  1.9999999999363231e+02 -1.1315018296271854e-12 2.5724094268241760e-12  1.9999999999346824e+02 -1.8044450566165299e-10 -1.8969245295522157e-10  1.9999999999359162e+02 -5.0021710296169560e-11 -2.1080894318922189e-11  1.9999999999819383e+02 -5.7473900998738155e-11 -3.9740451012982185e-11  1.9999999999816151e+02 -2.3831556094131782e-10 -2.5929145384977476e-10  1.9999999999898242e+02 -1.1368875890198679e-10 -1.3530601076878942e-10  1.9999999999819289e+02 1.2987984413125101e-10 7.0761916675640663e-11  1.9999999999815918e+02 -3.5647290994050362e-11 -6.8365468876916915e-11  1.9999999999907604e+02 -1.2409808702505851e-10 -1.5363109808728262e-10  1.9999999999906697e+02 -1.5202240320344058e-10 -1.5007121133678818e-10  1.9999999999955614e+02 -8.5616297459837844e-11 -6.6182075417945710e-11  2.0000000000001177e+02 -5.2907286983110554e-11 -1.6803532473387253e-10  2.0000000000052827e+02 1.1077405880554937e-10 8.2767851545703066e-11  1.9999999999904421e+02 6.2815193346998338e-12 -1.8983288624222456e-11  2.0000000000010741e+02 -5.5631168272105271e-11 -9.3983706883823771e-11  2.0000000000000838e+02 -1.0213712240348765e-10 -5.4464232106283169e-11  1.9999999999634369e+02 -4.1529090892551418e-12 -9.8841161738915151e-11  1.9999999999616881e+02 -9.4195116098797942e-11 -1.4782200276781853e-10  1.9999999999714458e+02 -8.2805057671715473e-11 -1.2050302727687536e-10  1.9999999999643899e+02 1.0571661993713908e-10 6.6889126131463712e-11  1.9999999999630705e+02 -9.2444682584065084e-12 -5.3427818282416739e-11  1.9999999999717062e+02 -1.4423151604354038e-10 -2.1656285513543340e-10  1.9999999999716613e+02 -1.6305639960906244e-10 -1.5442817742394568e-10  1.9999999999729434e+02 -1.6082955879983927e-11 -5.8310251635014562e-11  1.9999999999723877e+02 2.1814866372608995e-11 -4.9079009815898228e-11  1.9999999999453874e+02 -2.4877011618856224e-11 -8.0010679339233543e-11  1.9999999999431157e+02 -1.5488516668226083e-10 -1.5444583382324831e-10  1.9999999999535183e+02 -1.1237848072033334e-10 -1.3879799727610943e-10  1.9999999999465692e+02 8.4414117129673861e-11 4.5665174110253781e-11  1.9999999999455966e+02 -8.5654146577914477e-11 -5.3948483786061505e-11  1.9999999999531914e+02 -1.3611136460630694e-10 -2.5062021602115207e-10  1.9999999999528353e+02 -1.9663549633921272e-10 -1.4592583319763607e-10  1.9999999999535265e+02 -8.4589560215249737e-12 -6.5867210818555089e-11  1.9999999999259867e+02 -1.3748416209649699e-10 -9.7044910268488841e-11  1.9999999999265049e+02 -5.3272118648421501e-11 -1.6421338556822891e-11  1.9999999999355001e+02 -1.2193374547847321e-10 -1.3558378982612285e-10  1.9999999999267345e+02 -6.0210406651586279e-11 -8.1967499138322072e-11  1.9999999999283139e+02 3.4889352347798657e-11 6.3855966099293285e-11  1.9999999999267604e+02 -4.8017023723127482e-11 -4.0953825096792380e-11  1.9999999999354685e+02 -1.1895269721657329e-10 -2.0321901589455854e-10  1.9999999999352349e+02 -1.7263542897028814e-10 -1.7081464643680292e-10  1.9999999999363766e+02 5.1611292698466032e-13 -2.1562056418650835e-11  1.9999999999899163e+02 -1.3081583650487286e-10 -1.0994881150540219e-10  1.9999999999820017e+02 -2.8350530465644853e-10 -2.2110286851628428e-10  1.9999999999818584e+02 -6.8724774531249949e-11 -3.2653966561198322e-11  1.9999999999820656e+02 1.2351961099524665e-10 8.9217090398146615e-11  1.9999999999820508e+02 -8.4451880698214976e-11 -1.4576356482636016e-10  1.9999999999904847e+02 -1.7990206831719347e-10 -1.9540669886772934e-10  1.9999999999903952e+02 -1.8361947196661617e-10 -1.5357342023715752e-10  1.9999999999964845e+02 -9.0458401269893736e-11 -7.2771970241525143e-11  2.0000000000006443e+02 -9.1765564588160295e-11 -1.2494714510976218e-10  2.0000000000056539e+02 1.3035209067240470e-10 1.0100510769229345e-10  1.9999999999896303e+02 2.8372355023830809e-11 2.4892251388670855e-11  2.0000000000002873e+02 -1.0323795295560833e-10 -5.4835106661437057e-11  1.9999999999713992e+02 -1.3757456177829185e-10 -1.0020779151951922e-10  1.9999999999719057e+02 -1.4763245626906097e-10 -2.1806055552214604e-10  1.9999999999615588e+02 -1.5008824420316180e-10 -1.3604818238427521e-10  1.9999999999632209e+02 1.6704079804656623e-12 -6.5972997040839261e-11  1.9999999999645212e+02 1.2811954310533971e-10 5.6814241158602927e-11  1.9999999999633542e+02 -6.0219382003569057e-11 -5.5839636163227416e-11  1.9999999999714652e+02 -1.6390488881274096e-10 -2.0355800451271162e-10  1.9999999999718125e+02 -1.6199416015324922e-10 -1.2083002892460334e-10  1.9999999999726131e+02 -1.0497777248628975e-10 3.0345636526504678e-11  1.9999999999727248e+02 1.2258220084506023e-11 -4.9591849006133888e-11  1.9999999999532560e+02 -1.1612106938392833e-10 -1.1049771436616111e-10  1.9999999999435764e+02 -1.0972163116118876e-10 -1.4975255250103221e-10  1.9999999999453942e+02 -6.5257152301268152e-12 -6.1378716910935307e-11  1.9999999999463702e+02 1.1025108755343009e-10 8.7028771041743466e-11  1.9999999999457597e+02 3.2244343253489411e-11 -4.9288264986561261e-11  1.9999999999528973e+02 -1.0075621275293679e-10 -2.8394462060494428e-10  1.9999999999529575e+02 -1.5905937043370333e-10 -1.1571575721575878e-10  1.9999999999540560e+02 2.6307425863572667e-11 -4.7532357617829949e-11  1.9999999999351039e+02 -1.0437657465367442e-10 -9.6711104632399636e-11  1.9999999999255695e+02 -1.5448707882408358e-10 -1.4740048155513496e-10  1.9999999999270187e+02 -1.6530881277799007e-11 -3.9577389249964752e-11  1.9999999999281650e+02 7.0670129279930447e-11 1.0117712347187756e-10  1.9999999999267533e+02 -1.5332779113642199e-12 -1.3939870391943699e-11  1.9999999999349399e+02 -1.0381165849036863e-10 -2.2568430153689063e-10  1.9999999999346855e+02 -2.0353124314783992e-10 -1.0620269728011751e-10  1.9999999999358323e+02 -1.1150216275804998e-11 -4.2776773049173708e-11  1.9999999999176742e+02 -6.5956484890311629e-11 -1.1570328098365348e-10  1.9999999999175864e+02 -2.3145539942742326e-10 -1.3274966919767199e-10  1.9999999999084167e+02 3.1503927460012044e-11 2.0741434770727654e-11  1.9999999999107689e+02 3.7215686689298671e-11 6.5297652695276478e-11  1.9999999999175779e+02 -2.8875000175800037e-11 -2.8208244586364393e-10  1.9999999999183461e+02 -2.0715905124084991e-11 1.5718053851410816e-11  1.9999999999900871e+02 -1.1345120107873760e-10 -9.9620663705290433e-11  1.9999999999912811e+02 -2.5457405317827589e-10 -5.6874511346769641e-11  1.9999999999813613e+02 -2.7637153892689330e-10 -2.1615538290410592e-10  1.9999999999818618e+02 -1.1700926327555243e-11 5.8983380020546792e-12  1.9999999999823132e+02 1.7836776988925840e-10 -2.6556507462345055e-11  1.9999999999817607e+02 -3.8593263802995295e-11 -5.6839221090936065e-11  1.9999999999817993e+02 1.2940450790490484e-10 1.1522737843718340e-10  1.9999999999815759e+02 -3.8494595276850492e-11 -1.0273437463355978e-10  1.9999999999903568e+02 -1.3447523365400812e-10 -1.5817944303648429e-10  2.0000000000001322e+02 -1.0393425653648926e-10 1.1689238308925153e-10  2.0000000000056045e+02 1.2661401647772545e-10 -2.4565963924103686e-11  1.9999999999906407e+02 -1.5890900079112261e-10 -1.0315628308101438e-10  1.9999999999903795e+02 -5.3950843197970526e-11 6.0449347173716045e-11  1.9999999999969495e+02 -1.1545781983786990e-10 -5.3403325550027391e-12  2.0000000000003604e+02 -7.2548862240033390e-11 -6.7693345556666237e-11  2.0000000000057997e+02 1.0896545346869518e-10 1.1494955100142489e-10  1.9999999999900893e+02 -7.8145419564070145e-11 1.8492666993412628e-11  1.9999999999998633e+02 -6.1698543467096972e-11 -4.0880037775053539e-11  1.9999999999719512e+02 -1.1153480049953842e-10 -1.0096053783222199e-10  1.9999999999708228e+02 -2.4105839388982671e-10 -6.2030767063907730e-11  1.9999999999619476e+02 -1.5936917304446152e-10 -9.6568226290187980e-11  1.9999999999629117e+02 -9.7564743825679501e-11 8.2827277400061585e-11  1.9999999999645016e+02 1.4151350950528381e-10 -1.1532183971321978e-11  1.9999999999634332e+02 -2.4398703901508641e-11 -2.8788021132617059e-11  1.9999999999646676e+02 7.8520846965449488e-11 7.6997207897048361e-11  1.9999999999632323e+02 -1.8088554945088948e-11 -3.5470238064137927e-11  1.9999999999719060e+02 -1.5734252462883088e-10 -2.0376026169172536e-10  1.9999999999716107e+02 -1.6959477900333326e-10 -1.4148865506415132e-10  1.9999999999720541e+02 -5.4016976309954996e-11 4.1032603217914098e-11  1.9999999999724218e+02 -1.9807028450186532e-11 -1.1497433626302575e-11  1.9999999999534072e+02 -1.0944622262163584e-10 -1.2121854744947572e-10  1.9999999999524215e+02 -2.3509431274297065e-10 -6.8971000788728997e-11  1.9999999999432356e+02 -1.6059289739064243e-10 -1.4219607373082566e-10  1.9999999999445998e+02 -2.4202769810733073e-11 6.8354408818722122e-11  1.9999999999465788e+02 1.1941327199762119e-10 -2.5650729637479335e-11  1.9999999999450890e+02 -1.6724569987170529e-11 -7.8704785892577641e-11  1.9999999999464947e+02 9.1204960868460544e-11 8.1480856761619016e-11  1.9999999999449813e+02 -4.0299751638484557e-11 -1.1525346483382591e-11  1.9999999999532452e+02 -1.3791796461693675e-10 -1.9376381811061941e-10  1.9999999999531389e+02 -1.9913809832155100e-10 -1.0781613670644877e-10  1.9999999999546500e+02 -1.0501730977429224e-10 7.8817701869575625e-11  1.9999999999535865e+02 -4.5364415428945888e-11 -4.6789312318310200e-11  1.9999999999352767e+02 -9.2852462098216422e-11 -1.4285707894394700e-10  1.9999999999339889e+02 -2.1309785402186805e-10 -8.5090825813965140e-11  1.9999999999251449e+02 -1.0540061192675355e-10 -1.0865772635652753e-10  1.9999999999260760e+02 -2.3655624356501615e-11 5.4278102311687279e-11  1.9999999999282579e+02 1.1717114645986532e-10 -4.7488684039952434e-11  1.9999999999267004e+02 -5.3999948523155991e-12 4.1766786094966263e-12  1.9999999999282443e+02 1.0639483982321935e-10 7.5761354321981305e-11  1.9999999999272188e+02 -4.0191850417091573e-12 -3.1763189341584939e-11  1.9999999999349328e+02 -1.4261626194886294e-10 -1.8368876989895538e-10  1.9999999999352087e+02 -1.5861736677846108e-10 -1.2641868002303202e-10  1.9999999999357061e+02 -8.4456610814850690e-11 8.4133324466637416e-11  1.9999999999356490e+02 2.6340440370976066e-11 -3.3447787584845451e-11  1.9999999999179011e+02 -1.0208771648852149e-10 -1.0214476853051807e-10  1.9999999999159871e+02 -2.1761477179698630e-10 -7.8969699711047182e-11  1.9999999999072514e+02 -1.4957880907932646e-10 -9.4675260167971748e-11  1.9999999999086194e+02 -2.9754488255276170e-11 5.6777949016429851e-11  1.9999999999109218e+02 1.3365141997582393e-10 -2.8553271510427422e-11  1.9999999999093413e+02 -4.5618557280303262e-12 8.2303623375816306e-12  1.9999999999102806e+02 7.8730777570054607e-11 3.9031623231589801e-11  1.9999999999090051e+02 -4.8939383054809673e-11 3.9264713698498014e-12  1.9999999999173690e+02 -1.4382217588405196e-10 -1.9033450791950286e-10  1.9999999999170257e+02 -1.6177550292598362e-10 -8.4626537564553153e-11  1.9999999999175270e+02 -8.7432742500566482e-11 2.2805593660337251e-11  1.9999999999180707e+02 -8.1038771299729835e-12 -1.7139125327577692e-11  1.9999999999001932e+02 -9.3500844289406776e-11 -9.8126672255332515e-11  1.9999999998988284e+02 -3.9614746161136631e-11 -1.1978585640655123e-10  1.9999999998998194e+02 -7.2806176442608262e-11 -2.8369763790836918e-10  1.9999999999006138e+02 -1.5922302300081467e-12 1.3670494706692789e-11  1.9999999998996415e+02 -1.5327496586584104e-10 -1.4903382232301646e-10  1.9999999999901675e+02 -7.4965097787384637e-11 -3.2315344017371560e-11  1.9999999999915926e+02 -2.4286672753743924e-10 -1.0980204815460652e-10  1.9999999999812542e+02 -2.6122850249547872e-10 -2.7013292056655147e-10  1.9999999999819224e+02 -9.3697840571217447e-11 -1.9890271288975095e-11  1.9999999999817237e+02 1.6145695964124469e-10 -3.6369256938666946e-11  1.9999999999811507e+02 -8.7787924691943205e-11 -1.8743326520133905e-11  1.9999999999814409e+02 1.6512510622182209e-10 9.9077640077039379e-11  1.9999999999822484e+02 -5.5263312543887005e-11 -9.0412735153963111e-11  1.9999999999905211e+02 -1.5676398359911155e-10 -1.4113231490088911e-10  2.0000000000002416e+02 -4.2304788767161644e-11 1.9136814877331006e-10  2.0000000000059316e+02 1.6265320311951351e-10 -8.1157345657536525e-11  1.9999999999908135e+02 -1.8469690429551200e-10 -9.9045674772360194e-11  1.9999999999898267e+02 -3.4870038120310881e-11 8.0051263748682668e-12  1.9999999999962196e+02 -8.931473