<?xml version="1.0"?>
<VTKFile type="UnstructuredGrid"  version="0.1"  >
<UnstructuredGrid>
<Piece  NumberOfPoints="3901" NumberOfCells="19057">
<Points>
<DataArray  type="Float64"  NumberOfComponents="3"  format="ascii">0 27.5 25  1.25 28.75 26.25  1.25 28.75 25  1.25 27.5 25  2.5 27.5 25  2.5 28.75 26.25  2.5 28.75 25  2.5 30 25  2.5 30 26.25  2.5 30 27.5  1.25 27.5 26.25  2.5 27.5 26.25  2.5 27.5 27.5  2.5 28.75 27.5  0 27.5 26.25  0 27.5 27.5  1.25 28.75 27.5  1.25 27.5 27.5  0 28.75 25  0 30 25  1.25 30 26.25  1.25 30 25  0 28.75 26.25  0 28.75 27.5  0 30 27.5  1.25 30 27.5  0 30 26.25  3.75 28.75 26.25  3.75 28.75 25  3.75 27.5 25  5 27.5 25  5 28.75 26.25  5 28.75 25  5 30 25  5 30 26.25  5 30 27.5  3.75 27.5 26.25  5 27.5 26.25  5 27.5 27.5  5 28.75 27.5  3.75 28.75 27.5  3.75 27.5 27.5  3.75 30 26.25  3.75 30 25  3.75 30 27.5  6.25 28.75 26.25  6.25 28.75 25  6.25 27.5 25  7.5 27.5 25  7.5 28.75 26.25  7.5 28.75 25  7.5 30 25  7.5 30 26.25  7.5 30 27.5  6.25 27.5 26.25  7.5 27.5 26.25  7.5 27.5 27.5  7.5 28.75 27.5  6.25 28.75 27.5  6.25 27.5 27.5  6.25 30 26.25  6.25 30 25  6.25 30 27.5  8.75 28.75 26.25  8.75 27.5 26.25  8.75 28.75 27.5  8.75 27.5 27.5  10 27.5 27.5  10 28.75 27.5  10 30 27.5  8.75 28.75 25  8.75 30 26.25  8.75 30 25  10 30 25  10 30 26.25  8.75 30 27.5  1.25 31.25 26.25  1.25 31.25 25  2.5 31.25 26.25  2.5 31.25 25  2.5 32.5 25  2.5 32.5 26.25  2.5 32.5 27.5  2.5 31.25 27.5  1.25 31.25 27.5  0 31.25 25  0 32.5 25  1.25 32.5 26.25  1.25 32.5 25  0 31.25 26.25  0 31.25 27.5  0 32.5 27.5  1.25 32.5 27.5  0 32.5 26.25  3.75 31.25 26.25  3.75 31.25 25  5 31.25 26.25  5 31.25 25  5 32.5 25  5 32.5 26.25  5 32.5 27.5  5 31.25 27.5  3.75 31.25 27.5  3.75 32.5 26.25  3.75 32.5 25  3.75 32.5 27.5  6.25 31.25 26.25  6.25 31.25 25  7.5 31.25 26.25  7.5 31.25 25  7.5 32.5 25  7.5 32.5 26.25  7.5 32.5 27.5  7.5 31.25 27.5  6.25 31.25 27.5  6.25 32.5 26.25  6.25 32.5 25  6.25 32.5 27.5  8.75 31.25 26.25  8.75 31.25 25  10 31.25 26.25  10 31.25 25  10 32.5 25  10 32.5 26.25  10 32.5 27.5  10 31.25 27.5  8.75 31.25 27.5  8.75 32.5 26.25  8.75 32.5 25  8.75 32.5 27.5  1.25 33.75 26.25  1.25 33.75 25  2.5 33.75 26.25  2.5 33.75 25  2.5 35 25  2.5 35 26.25  2.5 35 27.5  2.5 33.75 27.5  1.25 33.75 27.5  0 33.75 25  0 35 25  1.25 35 26.25  1.25 35 25  0 33.75 26.25  0 33.75 27.5  0 35 27.5  1.25 35 27.5  0 35 26.25  3.75 33.75 26.25  3.75 33.75 25  5 33.75 26.25  5 33.75 25  5 35 25  5 35 26.25  5 35 27.5  5 33.75 27.5  3.75 33.75 27.5  3.75 35 26.25  3.75 35 25  3.75 35 27.5  6.25 33.75 26.25  6.25 33.75 25  7.5 33.75 26.25  7.5 33.75 25  7.5 35 25  7.5 35 26.25  7.5 35 27.5  7.5 33.75 27.5  6.25 33.75 27.5  6.25 35 26.25  6.25 35 25  6.25 35 27.5  8.75 33.75 26.25  8.75 33.75 25  10 33.75 26.25  10 33.75 25  10 35 25  10 35 26.25  10 35 27.5  10 33.75 27.5  8.75 33.75 27.5  8.75 35 26.25  8.75 35 25  8.75 35 27.5  1.25 36.25 26.25  2.5 36.25 26.25  2.5 36.25 27.5  2.5 37.5 27.5  1.25 36.25 27.5  0 36.25 26.25  0 36.25 27.5  0 37.5 27.5  1.25 37.5 27.5  3.75 36.25 26.25  5 36.25 26.25  5 36.25 27.5  5 37.5 27.5  3.75 36.25 27.5  3.75 37.5 27.5  6.25 36.25 26.25  7.5 36.25 26.25  7.5 36.25 27.5  7.5 37.5 27.5  6.25 36.25 27.5  6.25 37.5 27.5  8.75 36.25 26.25  10 36.25 26.25  10 36.25 27.5  10 37.5 27.5  8.75 36.25 27.5  8.75 37.5 27.5  1.25 28.75 28.75  2.5 28.75 28.75  2.5 30 28.75  2.5 30 30  1.25 27.5 28.75  2.5 27.5 28.75  2.5 27.5 30  2.5 28.75 30  0 27.5 28.75  0 27.5 30  1.25 28.75 30  1.25 27.5 30  1.25 30 28.75  0 28.75 28.75  0 28.75 30  0 30 30  1.25 30 30  0 30 28.75  3.75 28.75 28.75  5 28.75 28.75  5 30 28.75  5 30 30  3.75 27.5 28.75  5 27.5 28.75  5 27.5 30  5 28.75 30  3.75 28.75 30  3.75 27.5 30  3.75 30 28.75  3.75 30 30  6.25 28.75 28.75  7.5 28.75 28.75  7.5 30 28.75  7.5 30 30  6.25 27.5 28.75  7.5 27.5 28.75  7.5 27.5 30  7.5 28.75 30  6.25 28.75 30  6.25 27.5 30  6.25 30 28.75  6.25 30 30  8.75 28.75 28.75  10 28.75 28.75  10 30 28.75  10 30 30  8.75 27.5 28.75  10 27.5 28.75  10 27.5 30  10 28.75 30  8.75 28.75 30  8.75 27.5 30  8.75 30 28.75  8.75 30 30  1.25 31.25 28.75  2.5 31.25 28.75  2.5 32.5 28.75  2.5 32.5 30  2.5 31.25 30  1.25 31.25 30  1.25 32.5 28.75  0 31.25 28.75  0 31.25 30  0 32.5 30  1.25 32.5 30  0 32.5 28.75  3.75 31.25 28.75  5 31.25 28.75  5 32.5 28.75  5 32.5 30  5 31.25 30  3.75 31.25 30  3.75 32.5 28.75  3.75 32.5 30  6.25 31.25 28.75  7.5 31.25 28.75  7.5 32.5 28.75  7.5 32.5 30  7.5 31.25 30  6.25 31.25 30  6.25 32.5 28.75  6.25 32.5 30  8.75 31.25 28.75  10 31.25 28.75  10 32.5 28.75  10 32.5 30  10 31.25 30  8.75 31.25 30  8.75 32.5 28.75  8.75 32.5 30  1.25 33.75 28.75  2.5 33.75 28.75  2.5 35 28.75  2.5 35 30  2.5 33.75 30  1.25 33.75 30  1.25 35 28.75  0 33.75 28.75  0 33.75 30  0 35 30  1.25 35 30  0 35 28.75  3.75 33.75 28.75  5 33.75 28.75  5 35 28.75  5 35 30  5 33.75 30  3.75 33.75 30  3.75 35 28.75  3.75 35 30  6.25 33.75 28.75  7.5 33.75 28.75  7.5 35 28.75  7.5 35 30  7.5 33.75 30  6.25 33.75 30  6.25 35 28.75  6.25 35 30  8.75 33.75 28.75  10 33.75 28.75  10 35 28.75  10 35 30  10 33.75 30  8.75 33.75 30  8.75 35 28.75  8.75 35 30  1.25 36.25 28.75  2.5 36.25 28.75  2.5 37.5 28.75  2.5 37.5 30  2.5 36.25 30  1.25 36.25 30  1.25 37.5 28.75  0 36.25 28.75  0 36.25 30  0 37.5 30  1.25 37.5 30  0 37.5 28.75  3.75 36.25 28.75  5 36.25 28.75  5 37.5 28.75  5 37.5 30  5 36.25 30  3.75 36.25 30  3.75 37.5 28.75  3.75 37.5 30  6.25 36.25 28.75  7.5 36.25 28.75  7.5 37.5 28.75  7.5 37.5 30  7.5 36.25 30  6.25 36.25 30  6.25 37.5 28.75  6.25 37.5 30  8.75 36.25 28.75  10 36.25 28.75  10 37.5 28.75  10 37.5 30  10 36.25 30  8.75 36.25 30  8.75 37.5 28.75  8.75 37.5 30  1.25 38.75 28.75  2.5 38.75 28.75  2.5 38.75 30  2.5 40 30  3.75 38.75 28.75  5 38.75 28.75  5 38.75 30  5 40 30  3.75 38.75 30  3.75 40 30  6.25 38.75 28.75  7.5 38.75 28.75  8.75 38.75 28.75  10 38.75 28.75  11.25 38.75 28.75  1.25 28.75 31.25  2.5 28.75 31.25  2.5 30 31.25  2.5 30 32.5  1.25 30 31.25  0 28.75 31.25  0 30 31.25  0 30 32.5  1.25 30 32.5  3.75 28.75 31.25  5 28.75 31.25  5 30 31.25  5 30 32.5  3.75 30 31.25  3.75 30 32.5  6.25 28.75 31.25  7.5 28.75 31.25  7.5 30 31.25  7.5 30 32.5  7.5 27.5 31.25  7.5 27.5 32.5  7.5 28.75 32.5  6.25 30 31.25  6.25 30 32.5  8.75 28.75 31.25  10 28.75 31.25  10 30 31.25  10 30 32.5  10 27.5 31.25  10 27.5 32.5  10 28.75 32.5  8.75 30 31.25  8.75 30 32.5  1.25 31.25 31.25  2.5 31.25 31.25  2.5 32.5 31.25  2.5 32.5 32.5  2.5 31.25 32.5  1.25 32.5 31.25  0 31.25 31.25  3.75 31.25 31.25  5 31.25 31.25  5 32.5 31.25  5 32.5 32.5  5 31.25 32.5  3.75 31.25 32.5  3.75 32.5 31.25  3.75 32.5 32.5  6.25 31.25 31.25  7.5 31.25 31.25  7.5 32.5 31.25  7.5 32.5 32.5  7.5 31.25 32.5  6.25 31.25 32.5  6.25 32.5 31.25  6.25 32.5 32.5  8.75 31.25 31.25  10 31.25 31.25  10 32.5 31.25  10 32.5 32.5  10 31.25 32.5  8.75 31.25 32.5  8.75 32.5 31.25  8.75 32.5 32.5  1.25 33.75 31.25  2.5 33.75 31.25  2.5 35 31.25  1.25 35 31.25  3.75 33.75 31.25  5 33.75 31.25  5 35 31.25  3.75 35 31.25  6.25 33.75 31.25  7.5 33.75 31.25  6.25 35 31.25  8.75 33.75 31.25  10 33.75 31.25  8.75 35 31.25  1.25 36.25 31.25  2.5 36.25 31.25  3.75 36.25 31.25  5 36.25 31.25  6.25 36.25 31.25  7.5 36.25 31.25  8.75 36.25 31.25  8.75 27.5 25  10 27.5 25  10 28.75 26.25  10 28.75 25  10 27.5 26.25  11.25 28.75 26.25  11.25 28.75 25  11.25 27.5 25  12.5 27.5 25  12.5 28.75 26.25  12.5 28.75 25  12.5 30 25  12.5 30 26.25  12.5 30 27.5  11.25 27.5 26.25  12.5 27.5 26.25  12.5 27.5 27.5  12.5 28.75 27.5  11.25 28.75 27.5  11.25 27.5 27.5  11.25 30 26.25  11.25 30 25  11.25 30 27.5  13.75 28.75 26.25  13.75 28.75 25  13.75 27.5 25  15 27.5 25  15 28.75 26.25  15 28.75 25  15 30 25  15 30 26.25  15 30 27.5  13.75 27.5 26.25  15 27.5 26.25  15 27.5 27.5  15 28.75 27.5  13.75 28.75 27.5  13.75 27.5 27.5  13.75 30 26.25  13.75 30 25  13.75 30 27.5  16.25 28.75 26.25  16.25 28.75 25  16.25 27.5 25  17.5 27.5 25  17.5 28.75 26.25  17.5 28.75 25  17.5 30 25  17.5 30 26.25  17.5 30 27.5  16.25 27.5 26.25  17.5 27.5 26.25  17.5 27.5 27.5  17.5 28.75 27.5  16.25 28.75 27.5  16.25 27.5 27.5  16.25 30 26.25  16.25 30 25  16.25 30 27.5  18.75 28.75 26.25  18.75 27.5 26.25  18.75 27.5 25  20 27.5 25  20 28.75 26.25  20 27.5 26.25  20 27.5 27.5  20 28.75 27.5  20 30 27.5  18.75 28.75 27.5  18.75 27.5 27.5  18.75 30 27.5  18.75 30 26.25  21.25 28.75 26.25  21.25 27.5 26.25  21.25 28.75 27.5  21.25 27.5 27.5  22.5 27.5 27.5  22.5 28.75 27.5  22.5 30 27.5  21.25 30 27.5  11.25 31.25 26.25  11.25 31.25 25  12.5 31.25 26.25  12.5 31.25 25  12.5 32.5 25  12.5 32.5 26.25  12.5 32.5 27.5  12.5 31.25 27.5  11.25 31.25 27.5  11.25 32.5 26.25  11.25 32.5 25  11.25 32.5 27.5  13.75 31.25 26.25  15 31.25 26.25  15 31.25 27.5  15 32.5 27.5  13.75 31.25 27.5  13.75 32.5 27.5  13.75 32.5 26.25  16.25 31.25 26.25  17.5 31.25 26.25  17.5 31.25 27.5  17.5 32.5 27.5  16.25 31.25 27.5  16.25 32.5 27.5  18.75 31.25 26.25  18.75 31.25 27.5  20 31.25 27.5  20 32.5 27.5  18.75 32.5 27.5  11.25 33.75 26.25  12.5 33.75 26.25  12.5 33.75 27.5  12.5 35 27.5  11.25 33.75 27.5  11.25 35 27.5  11.25 35 26.25  13.75 33.75 26.25  13.75 33.75 27.5  15 33.75 27.5  15 35 27.5  13.75 35 27.5  11.25 36.25 26.25  11.25 36.25 27.5  12.5 36.25 27.5  12.5 37.5 27.5  11.25 37.5 27.5  11.25 28.75 28.75  12.5 28.75 28.75  12.5 30 28.75  12.5 30 30  11.25 27.5 28.75  12.5 27.5 28.75  12.5 27.5 30  12.5 28.75 30  11.25 28.75 30  11.25 27.5 30  11.25 30 28.75  11.25 30 30  13.75 28.75 28.75  15 28.75 28.75  15 30 28.75  15 30 30  13.75 27.5 28.75  15 27.5 28.75  15 27.5 30  15 28.75 30  13.75 28.75 30  13.75 27.5 30  13.75 30 28.75  13.75 30 30  16.25 28.75 28.75  17.5 28.75 28.75  16.25 27.5 28.75  16.25 30 28.75  18.75 28.75 28.75  18.75 30 28.75  21.25 28.75 28.75  11.25 31.25 28.75  12.5 31.25 28.75  12.5 32.5 28.75  12.5 32.5 30  12.5 31.25 30  11.25 31.25 30  11.25 32.5 28.75  11.25 32.5 30  13.75 31.25 28.75  15 31.25 28.75  15 32.5 28.75  15 32.5 30  15 31.25 30  13.75 31.25 30  13.75 32.5 28.75  13.75 32.5 30  16.25 31.25 28.75  17.5 31.25 28.7
[...]
<PointData  Vectors="u"> 
<DataArray  type="Float64"  Name="u"  NumberOfComponents="3" format="ascii">2.0000000000059893e+02 -6.2173264453124008e-11 -6.2444862958497520e-11  1.9999999999897130e+02 -5.1504560761803797e-11 -9.7961001475927186e-11  1.9999999999895496e+02 -2.3258910030103289e-10 -2.7228313444597290e-10  1.9999999999898523e+02 -6.7805487827392780e-11 -1.2172710628131536e-10  1.9999999999831712e+02 -1.8340876313276388e-11 -2.3351815012450816e-11  1.9999999999796890e+02 -3.2244597876161118e-11 -1.8711145899737389e-10  1.9999999999812906e+02 -3.9315491137135619e-11 -5.5051965453248366e-11  1.9999999999824095e+02 2.3649753495486732e-11 -5.0185682785997524e-11  1.9999999999824166e+02 -1.1411171327029744e-10 -4.4473359850830859e-11  1.9999999999823166e+02 3.9733305928764366e-11 1.3036099594221074e-10  1.9999999999894541e+02 1.0025998778615423e-10 -7.5400940806628269e-11  1.9999999999812357e+02 3.0456986566587703e-11 -4.9207361458385722e-11  1.9999999999826321e+02 -1.6206256605972728e-10 1.6484244769947191e-10  1.9999999999825008e+02 -6.0846198385252862e-12 3.1431261621911665e-11  2.0000000000001305e+02 3.4387599227703514e-11 -1.4704775193190994e-11  2.0000000000052484e+02 -1.5066975879503183e-10 1.2396553524426501e-10  1.9999999999910281e+02 -6.0324044070532915e-11 -1.3848479570877910e-10  1.9999999999899151e+02 4.1634111963781966e-11 6.6783977699739446e-12  2.0000000000006006e+02 -3.9500393210241084e-11 -1.2787498621289671e-11  2.0000000000060888e+02 5.5683014818387938e-11 -9.2346608624659388e-11  1.9999999999905489e+02 -8.2151265528893347e-11 -1.4203681649108465e-10  1.9999999999901451e+02 -7.6666095125321889e-11 2.3277998833926979e-11  1.9999999999973411e+02 -5.2157158349216667e-11 7.8642291223780925e-13  1.9999999999995066e+02 -5.2894039235845080e-11 -6.4773587087978215e-11  2.0000000000054345e+02 9.8054240138087262e-11 1.3419548538247731e-10  1.9999999999901024e+02 -4.5557564138715447e-11 -3.8803434882862504e-11  2.0000000000003044e+02 -9.0358448334741635e-11 -2.4209129400180708e-11  1.9999999999719142e+02 -1.0612406412882804e-10 -1.1788686818179734e-10  1.9999999999702828e+02 -2.6025276867962571e-10 -1.8050918081936453e-10  1.9999999999724952e+02 -2.8179524937668403e-11 -5.2197179008765662e-12  1.9999999999646681e+02 -1.6795146935992550e-11 -4.1780748822303976e-12  1.9999999999614957e+02 -4.1748191817357049e-11 -1.0101204572735878e-10  1.9999999999627082e+02 -6.1468442324490483e-11 -7.4899576192691306e-11  1.9999999999647781e+02 3.0995899641222069e-11 -5.0279397046961015e-11  1.9999999999635253e+02 -5.6252961436354171e-11 -2.0136626000885967e-11  1.9999999999647608e+02 -2.2694819976858710e-11 8.9514078875295032e-11  1.9999999999713000e+02 1.1461195459701111e-11 -1.0154489437722884e-10  1.9999999999626831e+02 9.3544607093022235e-11 -4.1931300200278849e-11  1.9999999999643265e+02 -1.2625518518900151e-10 9.6906079928600423e-11  1.9999999999633451e+02 7.5370190473106178e-14 -1.3052731412260656e-11  1.9999999999717224e+02 7.3909263211245515e-11 -1.5759919837233999e-10  1.9999999999726961e+02 5.8963392191083881e-11 -9.7228459715696524e-11  1.9999999999715695e+02 -2.0423919232685888e-10 -1.0853245819952932e-10  1.9999999999727717e+02 -1.7602423110972687e-10 2.1085011422157998e-11  1.9999999999723741e+02 -3.6774961555201973e-12 -1.3134132243188672e-10  1.9999999999532432e+02 -9.7735502769512674e-11 -1.2150530160972279e-10  1.9999999999520713e+02 -2.4792288924629914e-10 -5.7992408727984744e-11  1.9999999999534737e+02 2.0537161926838118e-11 1.1769184394184285e-11  1.9999999999469097e+02 -1.6972707493381366e-11 -3.4688085935890212e-11  1.9999999999432350e+02 -3.1313242621239314e-11 -1.2028395850103854e-10  1.9999999999444580e+02 -5.3476078324241498e-11 -4.7026211220376459e-11  1.9999999999466192e+02 7.1771373118714156e-11 -6.0337809024557910e-11  1.9999999999449395e+02 -2.6763093180091154e-11 -5.5411293461845499e-11  1.9999999999465740e+02 1.0340238445577135e-11 9.5147354093510713e-11  1.9999999999528188e+02 5.1603153419737582e-11 -8.5549908479856549e-11  1.9999999999442434e+02 8.7460184762245038e-11 7.1129736453460575e-12  1.9999999999464248e+02 -9.9642154915149081e-11 9.3347578366916385e-11  1.9999999999457347e+02 -4.9686398195475923e-11 2.6643145332176819e-11  1.9999999999529720e+02 5.4607552848013907e-11 -2.0124690404603917e-10  1.9999999999543081e+02 7.6099885684053363e-11 -1.0725486975058174e-10  1.9999999999529305e+02 -2.3947074149543206e-10 -1.2635299582669659e-10  1.9999999999538619e+02 -1.4205720044260430e-10 6.4280666916504131e-11  1.9999999999536541e+02 3.2851666065194596e-11 -1.3494022348853699e-10  1.9999999999355637e+02 -1.5622662236373529e-10 -6.6078203693845001e-11  1.9999999999337081e+02 -1.7116524125444714e-10 -7.6125872700260806e-12  1.9999999999345607e+02 -4.5664506973356207e-11 -1.3786526184932693e-10  1.9999999999355768e+02 -1.9490738347599745e-11 -1.5632231275535706e-10  1.9999999999280948e+02 -1.2918417452692703e-10 7.4161737299730491e-11  1.9999999999263750e+02 6.8254136257016228e-11 4.2063065750187972e-11  1.9999999999287871e+02 5.2564477683569214e-11 6.9968981473303691e-11  1.9999999999351536e+02 -7.7316952344884138e-11 1.2845317600056419e-10  1.9999999999352090e+02 -2.5781911398622345e-10 -1.3878677271037790e-11  1.9999999999358485e+02 -9.4572248238772283e-11 1.1925134874024978e-10  1.9999999999288380e+02 6.4835969861830949e-11 -7.0546754483407676e-11  1.9999999999264915e+02 8.8648039861777698e-11 1.4236664382491012e-11  1.9999999999363339e+02 5.0637749364532420e-11 -1.0424432344177397e-10  1.9999999999902380e+02 -1.1443362842401762e-10 -2.9971295347164936e-11  1.9999999999915005e+02 -2.6774013422834273e-10 -1.0711538219692232e-10  1.9999999999817322e+02 -2.3984844373353065e-10 -2.1915771200519143e-10  1.9999999999817265e+02 -3.0422997219295631e-11 -4.8982950630543003e-11  1.9999999999820471e+02 8.6894889522730683e-11 -2.5976292467409552e-11  1.9999999999818692e+02 -1.0711472432352539e-10 -8.6781810641801858e-11  1.9999999999817919e+02 1.1038447648458080e-10 1.2099545644303818e-10  1.9999999999822970e+02 -8.6028497582126137e-11 -9.3853788370630365e-11  1.9999999999909079e+02 -1.4399948424763195e-10 -1.1097093869288101e-10  2.0000000000005272e+02 -8.0192156162499645e-11 9.0956786544320251e-11  2.0000000000064631e+02 1.0811390929298774e-10 -8.1506772269200446e-11  1.9999999999908096e+02 -1.9675746938760330e-10 -1.3437803989969477e-10  1.9999999999905370e+02 -8.2584905925844992e-11 4.6914673476218838e-11  1.9999999999964533e+02 -1.3401075376024862e-10 1.1445570568471606e-11  2.0000000000004266e+02 -1.2451756423535686e-10 -1.2228221551575477e-10  2.0000000000057994e+02 1.2114999656441644e-10 1.1478499286317710e-10  1.9999999999902641e+02 -9.9497769985143032e-11 5.9672083687581573e-11  1.9999999999999693e+02 -5.0030838380671057e-11 8.1485628980248912e-12  1.9999999999718383e+02 -9.6164149960925202e-11 -1.0651272419544927e-10  1.9999999999707430e+02 -2.4467587987618872e-10 -9.3518802869571380e-11  1.9999999999615821e+02 -1.5714881221572941e-10 -1.3683020296944012e-10  1.9999999999627599e+02 -1.0549805067470053e-10 7.5100149253245345e-11  1.9999999999645226e+02 8.8550888113226320e-11 7.4498662645843941e-12  1.9999999999632578e+02 -4.0407704940522534e-11 -3.4655642685550487e-11  1.9999999999644240e+02 8.1603526060026689e-11 9.9128675998454668e-11  1.9999999999633459e+02 -1.1730192592628443e-11 -3.1472779585486371e-11  1.9999999999717332e+02 -1.3069095810476166e-10 -1.9523209979367386e-10  1.9999999999717929e+02 -2.0041985870324825e-10 -1.0711572907014097e-10  1.9999999999724255e+02 -1.6869236073318165e-10 7.2335553640495374e-11  1.9999999999726006e+02 -2.0829928524567844e-11 -4.2242598000509739e-11  1.9999999999534015e+02 -1.3249743501771286e-10 -1.2696822219104527e-10  1.9999999999521040e+02 -2.8130029033571213e-10 -3.9643867540011707e-11  1.9999999999436781e+02 -1.5854238584519868e-10 -1.2429822925090263e-10  1.9999999999449233e+02 -8.1800581567718622e-11 2.2808930787171889e-11  1.9999999999466638e+02 7.4065907389065867e-11 -2.0712196893586901e-11  1.9999999999454087e+02 -2.7049287906522732e-11 -2.1732713172083131e-11  1.9999999999464151e+02 6.6193248076351169e-11 7.6212122195523833e-11  1.9999999999453178e+02 -1.2551524261667461e-11 -4.1325945187952205e-11  1.9999999999531687e+02 -1.4230171022783383e-10 -2.2285588192045656e-10  1.9999999999531400e+02 -1.7800956689723400e-10 -1.0352521537010205e-10  1.9999999999545611e+02 -1.0756551363444715e-10 8.1049245623765065e-11  1.9999999999539205e+02 -1.7618108765645903e-11 6.9357889190949786e-12  1.9999999999357573e+02 -1.0679688502966685e-10 -1.2178448361427394e-10  1.9999999999339173e+02 -2.7733404394478145e-10 -9.9433381166161075e-11  1.9999999999262795e+02 -1.6763969269085528e-10 -2.5789409186508817e-11  1.9999999999268982e+02 -7.9340081651655144e-11 1.7226667886671210e-11  1.9999999999286467e+02 9.0691597831692324e-11 -3.0816854569221770e-11  1.9999999999266535e+02 -4.1637548275808891e-11 -5.5790030490713996e-11  1.9999999999286521e+02 6.1738125760122949e-11 7.4465114323011534e-11  1.9999999999266072e+02 -5.5075769184848067e-11 9.0801856707767874e-11  1.9999999999353778e+02 -1.4801459726287549e-10 -2.0781477605026070e-10  1.9999999999353412e+02 -2.1663741475718155e-10 -1.1359691372761866e-10  1.9999999999364528e+02 -1.1591970458757081e-10 6.1883987373677438e-11  1.9999999999361549e+02 -2.2180409045908438e-11 2.7399872423128223e-12  1.9999999999899316e+02 -7.6132044861127217e-11 -2.9233351075477977e-11  1.9999999999908809e+02 -2.1475413177954746e-10 -1.1840773447792219e-10  1.9999999999815134e+02 -2.6579673418584752e-10 -2.1970077552346891e-10  1.9999999999815569e+02 -7.6090131454433057e-11 -3.5269806810074979e-11  1.9999999999817638e+02 1.4981396970207030e-10 -2.8164494075690783e-11  1.9999999999817265e+02 -8.5902243814608751e-11 -2.6791085454267780e-11  1.9999999999817462e+02 1.1164340050921085e-10 1.1865086030729352e-10  1.9999999999825292e+02 -1.8642745197926919e-11 -3.1361370329283320e-11  1.9999999999906021e+02 -1.9437953837437477e-10 -1.1428936200930254e-10  2.0000000000007029e+02 -1.6841603876530112e-11 1.2373228949565608e-10  2.0000000000063849e+02 8.7926601902327602e-11 -6.9307471013862253e-11  1.9999999999906234e+02 -2.1024802166047134e-10 -1.6246690150301181e-10  1.9999999999895442e+02 -7.7608800969476483e-11 2.7306893037241500e-11  1.9999999999958965e+02 -7.2952851288051782e-11 -1.9649495855156689e-11  2.0000000000003038e+02 -1.2154698544497594e-10 -1.3209131875124960e-10  2.0000000000055280e+02 8.2577159248820693e-11 8.3035390446777716e-11  1.9999999999904344e+02 -8.3484161095714875e-11 -4.8424274514689493e-12  2.0000000000003843e+02 -1.7114401030551900e-10 -4.6484422763903471e-11  1.9999999999719913e+02 -1.0152794446910098e-10 -7.2059414870398530e-11  1.9999999999708987e+02 -2.3971759278570338e-10 -7.2039307345760021e-11  1.9999999999616995e+02 -1.1989115798969216e-10 -1.0150458793456113e-10  1.9999999999629415e+02 -7.9439385526135246e-11 1.0341700733593075e-10  1.9999999999646045e+02 1.0202512969122647e-10 7.5504703560455667e-12  1.9999999999635068e+02 -6.5225772470551598e-11 -2.0598187360716504e-11  1.9999999999647642e+02 8.2760892369619587e-11 1.0428377876522806e-10  1.9999999999634980e+02 -3.5242956248988725e-11 -1.7212677031254514e-11  1.9999999999717215e+02 -1.6778907647065580e-10 -2.2028442580814941e-10  1.9999999999717855e+02 -1.6450939613680918e-10 -1.1363628976459741e-10  1.9999999999721280e+02 -8.1679381513535471e-11 1.0128886821422578e-10  1.9999999999724585e+02 8.5570640132866053e-12 -4.4741146537372761e-11  1.9999999999531454e+02 -1.2786332178993488e-10 -9.9185596007661734e-11  1.9999999999523303e+02 -2.1914920643671479e-10 -8.8851578398486313e-11  1.9999999999437460e+02 -1.5159702438355420e-10 -1.0104640085269235e-10  1.9999999999449415e+02 -9.1939340138600679e-11 4.1155676094029344e-11  1.9999999999461161e+02 6.6667648293262256e-11 -7.8266915425733189e-12  1.9999999999458481e+02 -2.5077357941070967e-11 2.1529124923795044e-11  1.9999999999462275e+02 1.1367260826155848e-10 1.0172924624277585e-10  1.9999999999449889e+02 -4.5312426499588237e-11 -1.0428970521764384e-11  1.9999999999531573e+02 -8.0219396456913887e-11 -1.5801199122622906e-10  1.9999999999526690e+02 -1.4877880804778913e-10 -9.2578845140046128e-11  1.9999999999540478e+02 -8.5704336437035869e-11 8.3822739386924768e-11  1.9999999999542666e+02 -2.1122192163180387e-11 3.9566651183824617e-11  1.9999999999357368e+02 -1.0947709403379067e-10 -1.1857213389669183e-10  1.9999999999344334e+02 -2.7743654714456633e-10 -4.9466630024263739e-11  1.9999999999261505e+02 -1.3702780735542348e-10 -1.2015275674983797e-10  1.9999999999267888e+02 -7.7824066821971253e-11 6.2360616384217845e-11  1.9999999999284034e+02 6.7746888985972173e-11 -2.5362126672729755e-11  1.9999999999267777e+02 -1.0529900786033431e-11 1.7411671645778120e-11  1.9999999999285626e+02 1.1504071225597107e-10 4.1376311719702897e-11  1.9999999999266268e+02 -7.1192456955548947e-11 -2.5963360839934718e-11  1.9999999999355146e+02 -1.4126190164030494e-10 -1.9647076147614919e-10  1.9999999999355083e+02 -2.1772577510072369e-10 -7.5896261294721374e-11  1.9999999999370192e+02 -9.5611151551634400e-11 9.1558220997359632e-11  1.9999999999360364e+02 3.5974071684180198e-12 -1.1539793702414484e-11  1.9999999999904898e+02 -1.5375020697640698e-10 1.8994390842118161e-11  1.9999999999818183e+02 -2.6508010989157632e-10 -9.2214016622540461e-11  1.9999999999826483e+02 -7.3475802347151619e-11 -6.7272334681334202e-11  1.9999999999824098e+02 1.4523514968522943e-10 5.0180230467367475e-11  1.9999999999906703e+02 -1.8604456341605025e-10 -1.0282595926907814e-10  1.9999999999967014e+02 -5.2220507607978148e-11 -3.9522791988809421e-11  2.0000000000002777e+02 -8.3675732207051108e-11 -9.6843546494165999e-11  2.0000000000057057e+02 1.3798829752419870e-10 5.5023655974070432e-11  1.9999999999899870e+02 -8.6585482816829466e-11 4.9757660595905616e-11  1.9999999999715922e+02 -8.5848814739001408e-11 -2.2187203505382110e-11  1.9999999999608295e+02 -1.1826381205087085e-10 -2.5025030752446033e-11  1.9999999999636151e+02 -2.9453748584297971e-11 -1.5435979303843397e-11  1.9999999999644200e+02 8.2063403121898536e-11 5.5133412648449455e-11  1.9999999999718958e+02 -1.2625458202573953e-10 -2.4192296884271851e-10  1.9999999999721743e+02 -1.2003181035655806e-10 6.3215680735146278e-11  1.9999999999533620e+02 -8.0552062812355478e-11 -2.0735324763483204e-11  1.9999999999427757e+02 -1.0652520898857684e-10 -2.8235048804334089e-11  1.9999999999452484e+02 -4.3315034973023710e-11 -4.0096998079330500e-11  1.9999999999461255e+02 8.6513967268016292e-11 3.6397184802842563e-11  1.9999999999531721e+02 -1.3192857008040707e-10 -2.2365995103738883e-10  1.9999999999541376e+02 -1.4681280051854001e-10 3.8726277581568763e-11  1.9999999999353770e+02 -7.3883865782481087e-11 -3.8051926006737303e-11  1.9999999999257906e+02 -1.5104181502655293e-10 -1.4561524618958454e-11  1.9999999999266959e+02 -5.1816897826477787e-11 -4.1331189578847721e-11  1.9999999999284259e+02 8.0542431922337275e-11 -5.6255668413598158e-12  1.9999999999350919e+02 -1.6810967015040809e-10 -1.8020349731382967e-10  1.9999999999360065e+02 -9.2241530913944118e-11 1.8890857709512687e-11  1.9999999999907320e+02 -7.7665610686216461e-11 -1.0034543038533712e-10  1.9999999999814199e+02 1.1782810018683106e-10 -2.9297114110937859e-10  1.9999999999817678e+02 1.4451999538806175e-11 -5.8662042799412958e-11  1.9999999999818806e+02 7.6043263903064785e-12 1.5785951760036959e-10  1.9999999999909141e+02 9.9684062937742782e-12 -1.5652357504249601e-10  1.9999999999820977e+02 4.9967617222619374e-11 -3.8565974839398230e-11  1.9999999999822271e+02 -1.8353908510669071e-10 1.0517469761567514e-10  1.9999999999820744e+02 -3.2322320849009068e-11 -7.1214712594423438e-11  2.0000000000007813e+02 5.9424880368434839e-11 -9.2084110821448601e-11  2.0000000000056647e+02 -1.9110782865339197e-10 1.3688607126918385e-10  1.9999999999911552e+02 -2.4373109476475714e-11 -2.3466151821909647e-10  1.9999999999903281e+02 3.6721346640274717e-12 -5.1635433399279464e-11  1.9999999999900541e+02 -1.2928746297656415e-10 -1.5085452112315163e-10  1.9999999999961875e+02 -2.5121672892213803e-11 -6.3179031493796399e-11  1.9999999999995865e+02 -2.1175842823602438e-11 -1.0165079203323584e-10  2.0000000000057025e+02 9.0145055666615487e-11 1.1462839256514239e-10  1.9999999999901951e+02 9.3381071792004559e-12 -8.3555528721306364e-11  2.0000000000003013e+02 -1.0647851948343719e-10 -1.0252811726713153e-10  1.9999999999715675e+02 -6.9190535340517094e-11 -1.2535103846516830e-10  1.9999999999616801e+02 6.8301546736316322e-11 -1.6413730883458195e-10  1.9999999999626803e+02 1.0275817589654168e-11 -7.4618879490772321e-11  1.9999999999649498e+02 -1.1905062799612454e-11 1.3338195080958721e-10  1.9999999999711827e+02 6.5100594432934992e-11 -1.7077381210963426e-10  1.9999999999626678e+02 4.3109607935890052e-11 -7.2022863441654159e-11  1.9999999999643916e+02 -1.8815728652935131e-10 1.2598984627753970e-10  1.9999999999636688e+02 4.6756067297409280e-11 -4.1747685481817964e-12  1.9999999999715061e+02 6.4417978768141945e-11 -1.5198310950515577e-10  1.9999999999720842e+02 2.1529332398453028e-11 -8.5629145407867221e-11  1.9999999999707930e+02 -2.0525054858070694e-11 -2.7758042955734850e-10  1.9999999999723309e+02 -6.3256671206882366e-12 -8.8691203229865669e-11  1.9999999999535245e+02 -1.6479483224184906e-11 -9.4836715809721482e-11  1.9999999999435624e+02 5.7495251376076063e-11 -1.7091982552019547e-10  1.9999999999446635e+02 -2.9131509267719072e-11 -6.2714208401067162e-11  1.9999999999468002e+02 -2.1136284215106287e-11 1.2329113999467444e-10  1.9999999999529848e+02 4.2651936464747080e-11 -1.6153383574834889e-10  1.9999999999446175e+02 7.3605987958496008e-11 -7.3419718200213609e-11  1.9999999999463702e+02 -1.5054451627893011e-10 1.0117918333612559e-10  1.9999999999451410e+02 2.1463532330925013e-11 -1.7458235146428299e-14  1.9999999999529109e+02 7.0638028338683867e-11 -1.8742386747569280e-10  1.9999999999541046e+02 6.7472606983551707e-11 -6.3899707319417641e-11  1.9999999999521762e+02 -8.2125056041675434e-11 -2.4429670980703427e-10  1.9999999999534035e+02 -2.7838816579797884e-11 -8.9877687356548545e-11  1.9999999999351232e+02 -1.4491754396348149e-11 -1.2098979038094460e-10  1.9999999999251102e+02 1.7905390086452169e-11 -1.4998762979777580e-10  1.9999999999268175e+02 -6.7538708162638117e-11 -1.1220888106817056e-10  1.9999999999289091e+02 3.2447527116856628e-11 8.5976409212093359e-11  1.9999999999342000e+02 -1.1434830053133494e-11 -1.3213456170698533e-10  1.9999999999264156e+02 7.7145360414868400e-11 -4.9435325938951424e-11  1.9999999999283853e+02 -1.2866930770028558e-10 8.9417356509438411e-11  1.9999999999263139e+02 6.7566661354144809e-12 -1.1263509957155313e-11  1.9999999999347068e+02 8.8758061542838839e-11 -2.1235601134701546e-10  1.9999999999352141e+02 3.3808958587007058e-11 -1.0358520292542194e-10  1.9999999999340579e+02 1.4883497610691023e-11 -2.8407506695335357e-10  1.9999999999352653e+02 -5.1406961428446978e-12 -8.3877548558934230e-11  1.9999999999895078e+02 -8.4640369232674537e-11 -9.5375771136533223e-11  1.9999999999815634e+02 -2.1788361811148170e-10 -2.5361397946839936e-10  1.9999999999816245e+02 -6.2043096116552815e-11 -3.0435682692517201e-11  1.9999999999818081e+02 1.2320463024155959e-10 1.2319689554545140e-10  1.9999999999816723e+02 -7.4160084232760804e-12 -1.0677788162898346e-10  1.9999999999903415e+02 -1.6221988098614484e-10 -2.1064245045294708e-10  1.9999999999901223e+02 -1.9717555845756384e-10 -1.6984103114042382e-10  1.9999999999957808e+02 -1.0789147009094710e-10 -3.4707905282010726e-11  2.0000000000000719e+02 -5.4464002772740420e-11 -1.0379683738714726e-10  2.0000000000055425e+02 7.6189494930227842e-11 7.0746506875470060e-11  1.9999999999900700e+02 -9.3904345536067092e-12 -6.2555648354690265e-12  2.0000000000004192e+02 -7.8588281518917378e-11 -6.3394925128458066e-12  1.9999999999717136e+02 -1.0429105996723205e-10 -8.7848042887152971e-11  1.9999999999618345e+02 -9.2924776675234053e-11 -