<?xml version="1.0"?>
<VTKFile type="UnstructuredGrid"  version="0.1"  >
<UnstructuredGrid>
<Piece  NumberOfPoints="4058" NumberOfCells="19986">
<Points>
<DataArray  type="Float64"  NumberOfComponents="3"  format="ascii">17.5 22.5 5  17.5 21.25 5  17.5 21.25 3.75  16.25 21.25 3.75  16.25 21.25 5  20 22.5 2.5  20 22.5 3.75  20 21.25 3.75  18.75 21.25 3.75  20 22.5 5  20 20 5  20 21.25 5  18.75 21.25 5  18.75 22.5 5  22.5 22.5 2.5  22.5 22.5 3.75  22.5 21.25 3.75  21.25 21.25 3.75  22.5 22.5 5  21.25 22.5 3.75  21.25 22.5 2.5  21.25 21.25 5  21.25 22.5 5  17.5 22.5 6.25  17.5 21.25 6.25  16.25 21.25 6.25  17.5 22.5 7.5  20 21.25 6.25  18.75 21.25 6.25  20 22.5 6.25  20 22.5 7.5  18.75 22.5 6.25  18.75 22.5 7.5  22.5 22.5 6.25  22.5 21.25 6.25  21.25 21.25 6.25  22.5 22.5 7.5  22.5 20 7.5  22.5 21.25 7.5  21.25 21.25 7.5  21.25 22.5 6.25  21.25 22.5 7.5  22.5 21.25 8.75  21.25 21.25 8.75  22.5 22.5 8.75  22.5 22.5 10  21.25 22.5 8.75  20 22.5 8.75  20 22.5 10  21.25 22.5 10  0 30 0  1.25 31.25 1.25  1.25 31.25 0  0 31.25 0  0 32.5 0  1.25 32.5 1.25  1.25 32.5 0  2.5 32.5 0  2.5 32.5 1.25  2.5 32.5 2.5  0 31.25 1.25  0 32.5 1.25  0 32.5 2.5  1.25 32.5 2.5  1.25 33.75 1.25  1.25 33.75 0  2.5 33.75 1.25  2.5 33.75 0  2.5 35 0  2.5 35 1.25  2.5 35 2.5  2.5 33.75 2.5  1.25 33.75 2.5  0 33.75 0  0 35 0  1.25 35 1.25  1.25 35 0  0 33.75 1.25  0 33.75 2.5  0 35 2.5  1.25 35 2.5  0 35 1.25  3.75 33.75 1.25  3.75 33.75 0  3.75 35 1.25  3.75 35 0  5 35 0  5 35 1.25  5 35 2.5  3.75 33.75 2.5  3.75 35 2.5  1.25 36.25 1.25  1.25 36.25 0  2.5 36.25 1.25  2.5 36.25 0  2.5 37.5 0  2.5 37.5 1.25  2.5 37.5 2.5  2.5 36.25 2.5  1.25 36.25 2.5  0 36.25 0  0 37.5 0  1.25 37.5 1.25  1.25 37.5 0  0 36.25 1.25  0 36.25 2.5  0 37.5 2.5  1.25 37.5 2.5  0 37.5 1.25  3.75 36.25 1.25  3.75 36.25 0  5 36.25 1.25  5 36.25 0  5 37.5 0  5 37.5 1.25  5 37.5 2.5  5 36.25 2.5  3.75 36.25 2.5  3.75 37.5 1.25  3.75 37.5 0  3.75 37.5 2.5  6.25 36.25 1.25  6.25 35 1.25  6.25 36.25 2.5  6.25 35 2.5  7.5 35 2.5  7.5 36.25 2.5  7.5 37.5 2.5  6.25 36.25 0  6.25 37.5 1.25  6.25 37.5 0  7.5 37.5 0  7.5 37.5 1.25  6.25 37.5 2.5  1.25 38.75 1.25  1.25 38.75 0  2.5 38.75 1.25  2.5 38.75 0  2.5 40 0  2.5 40 1.25  2.5 40 2.5  2.5 38.75 2.5  1.25 38.75 2.5  0 38.75 0  0 40 0  1.25 40 1.25  1.25 40 0  0 38.75 1.25  0 38.75 2.5  0 40 2.5  1.25 40 2.5  0 40 1.25  3.75 38.75 1.25  3.75 38.75 0  5 38.75 1.25  5 38.75 0  5 40 0  5 40 1.25  5 40 2.5  5 38.75 2.5  3.75 38.75 2.5  3.75 40 1.25  3.75 40 0  3.75 40 2.5  6.25 38.75 1.25  6.25 38.75 0  7.5 38.75 1.25  7.5 38.75 0  7.5 40 0  7.5 40 1.25  7.5 40 2.5  7.5 38.75 2.5  6.25 38.75 2.5  6.25 40 1.25  6.25 40 0  6.25 40 2.5  8.75 38.75 1.25  8.75 37.5 1.25  8.75 38.75 2.5  8.75 37.5 2.5  10 37.5 2.5  10 38.75 2.5  10 40 2.5  8.75 38.75 0  8.75 40 1.25  8.75 40 0  10 40 0  10 40 1.25  8.75 40 2.5  1.25 41.25 1.25  1.25 41.25 0  2.5 41.25 1.25  2.5 41.25 0  2.5 42.5 0  2.5 42.5 1.25  2.5 42.5 2.5  2.5 41.25 2.5  1.25 41.25 2.5  0 41.25 0  0 42.5 0  1.25 42.5 1.25  1.25 42.5 0  0 41.25 1.25  0 41.25 2.5  0 42.5 2.5  1.25 42.5 2.5  0 42.5 1.25  3.75 41.25 1.25  3.75 41.25 0  5 41.25 1.25  5 41.25 0  5 42.5 0  5 42.5 1.25  5 42.5 2.5  5 41.25 2.5  3.75 41.25 2.5  3.75 42.5 1.25  3.75 42.5 0  3.75 42.5 2.5  6.25 41.25 1.25  6.25 41.25 0  7.5 41.25 1.25  7.5 41.25 0  7.5 42.5 0  7.5 42.5 1.25  7.5 42.5 2.5  7.5 41.25 2.5  6.25 41.25 2.5  6.25 42.5 1.25  6.25 42.5 0  6.25 42.5 2.5  8.75 41.25 1.25  8.75 41.25 0  8.75 41.25 2.5  1.25 43.75 1.25  1.25 43.75 0  2.5 43.75 1.25  2.5 43.75 0  2.5 45 0  2.5 45 1.25  2.5 45 2.5  2.5 43.75 2.5  1.25 43.75 2.5  0 43.75 0  0 45 0  1.25 45 1.25  1.25 45 0  0 43.75 1.25  0 43.75 2.5  0 45 2.5  1.25 45 2.5  0 45 1.25  3.75 43.75 1.25  3.75 43.75 0  5 43.75 1.25  5 43.75 0  5 45 0  5 45 1.25  5 45 2.5  5 43.75 2.5  3.75 43.75 2.5  3.75 45 1.25  3.75 45 0  3.75 45 2.5  6.25 43.75 1.25  6.25 43.75 0  6.25 43.75 2.5  7.5 43.75 2.5  7.5 45 2.5  6.25 45 1.25  6.25 45 0  6.25 45 2.5  1.25 46.25 1.25  1.25 46.25 0  2.5 46.25 1.25  2.5 46.25 0  2.5 47.5 0  2.5 47.5 1.25  2.5 47.5 2.5  2.5 46.25 2.5  1.25 46.25 2.5  0 46.25 0  0 47.5 0  1.25 47.5 1.25  1.25 47.5 0  0 46.25 1.25  0 46.25 2.5  0 47.5 2.5  1.25 47.5 2.5  0 47.5 1.25  3.75 46.25 1.25  3.75 46.25 0  5 46.25 1.25  5 46.25 0  5 47.5 0  5 47.5 1.25  5 47.5 2.5  5 46.25 2.5  3.75 46.25 2.5  3.75 47.5 1.25  3.75 47.5 0  3.75 47.5 2.5  6.25 46.25 1.25  6.25 46.25 0  6.25 46.25 2.5  6.25 47.5 2.5  6.25 47.5 1.25  1.25 48.75 1.25  1.25 48.75 0  2.5 48.75 1.25  2.5 48.75 0  2.5 50 0  2.5 50 1.25  2.5 50 2.5  2.5 48.75 2.5  1.25 48.75 2.5  0 48.75 0  0 50 0  1.25 50 1.25  1.25 50 0  0 48.75 1.25  0 48.75 2.5  0 50 2.5  1.25 50 2.5  0 50 1.25  3.75 48.75 1.25  3.75 48.75 0  5 48.75 1.25  5 48.75 0  5 50 0  5 50 1.25  5 50 2.5  5 48.75 2.5  3.75 48.75 2.5  3.75 50 1.25  3.75 50 0  3.75 50 2.5  6.25 48.75 1.25  6.25 48.75 2.5  6.25 48.75 0  1.25 33.75 3.75  2.5 33.75 3.75  2.5 35 3.75  2.5 35 5  1.25 35 3.75  0 33.75 3.75  0 32.5 3.75  0 32.5 5  1.25 33.75 5  0 33.75 5  0 35 5  1.25 35 5  0 35 3.75  3.75 33.75 3.75  3.75 35 3.75  5 35 3.75  5 35 5  3.75 35 5  1.25 36.25 3.75  2.5 36.25 3.75  2.5 37.5 3.75  2.5 37.5 5  2.5 36.25 5  1.25 36.25 5  1.25 37.5 3.75  0 36.25 3.75  0 36.25 5  0 37.5 5  1.25 37.5 5  0 37.5 3.75  3.75 36.25 3.75  5 36.25 3.75  5 37.5 3.75  5 37.5 5  5 36.25 5  3.75 36.25 5  3.75 37.5 3.75  3.75 37.5 5  6.25 36.25 3.75  7.5 36.25 3.75  7.5 37.5 3.75  7.5 37.5 5  6.25 35 3.75  7.5 35 3.75  7.5 35 5  7.5 36.25 5  6.25 36.25 5  6.25 35 5  6.25 37.5 3.75  6.25 37.5 5  8.75 36.25 3.75  8.75 35 3.75  8.75 36.25 5  8.75 35 5  10 35 5  10 36.25 5  10 37.5 5  8.75 36.25 2.5  8.75 37.5 3.75  10 37.5 3.75  8.75 37.5 5  1.25 38.75 3.75  2.5 38.75 3.75  2.5 40 3.75  2.5 40 5  2.5 38.75 5  1.25 38.75 5  1.25 40 3.75  0 38.75 3.75  0 38.75 5  0 40 5  1.25 40 5  0 40 3.75  3.75 38.75 3.75  5 38.75 3.75  5 40 3.75  5 40 5  5 38.75 5  3.75 38.75 5  3.75 40 3.75  3.75 40 5  6.25 38.75 3.75  7.5 38.75 3.75  7.5 40 3.75  7.5 40 5  7.5 38.75 5  6.25 38.75 5  6.25 40 3.75  6.25 40 5  8.75 38.75 3.75  10 38.75 3.75  10 40 3.75  10 40 5  10 38.75 5  8.75 38.75 5  8.75 40 3.75  8.75 40 5  11.25 38.75 3.75  11.25 38.75 5  1.25 41.25 3.75  2.5 41.25 3.75  2.5 42.5 3.75  2.5 42.5 5  2.5 41.25 5  1.25 41.25 5  1.25 42.5 3.75  0 41.25 3.75  0 41.25 5  0 42.5 5  1.25 42.5 5  0 42.5 3.75  3.75 41.25 3.75  5 41.25 3.75  5 42.5 3.75  5 42.5 5  5 41.25 5  3.75 41.25 5  3.75 42.5 3.75  3.75 42.5 5  6.25 41.25 3.75  7.5 41.25 3.75  7.5 42.5 3.75  7.5 42.5 5  7.5 41.25 5  6.25 41.25 5  6.25 42.5 3.75  6.25 42.5 5  8.75 41.25 3.75  8.75 41.25 5  10 41.25 5  10 42.5 5  8.75 42.5 5  8.75 42.5 3.75  1.25 43.75 3.75  2.5 43.75 3.75  2.5 45 3.75  2.5 45 5  2.5 43.75 5  1.25 43.75 5  1.25 45 3.75  0 43.75 3.75  0 43.75 5  0 45 5  1.25 45 5  0 45 3.75  3.75 43.75 3.75  5 43.75 3.75  5 45 3.75  5 45 5  5 43.75 5  3.75 43.75 5  3.75 45 3.75  3.75 45 5  6.25 43.75 3.75  7.5 43.75 3.75  7.5 45 3.75  7.5 45 5  7.5 43.75 5  6.25 43.75 5  6.25 45 3.75  6.25 45 5  8.75 43.75 3.75  8.75 43.75 5  1.25 46.25 3.75  2.5 46.25 3.75  2.5 47.5 3.75  2.5 47.5 5  2.5 46.25 5  1.25 46.25 5  1.25 47.5 3.75  0 46.25 3.75  0 46.25 5  0 47.5 5  1.25 47.5 5  0 47.5 3.75  3.75 46.25 3.75  5 46.25 3.75  5 47.5 3.75  5 47.5 5  5 46.25 5  3.75 46.25 5  3.75 47.5 3.75  3.75 47.5 5  6.25 46.25 3.75  6.25 46.25 5  6.25 47.5 3.75  6.25 47.5 5  1.25 48.75 3.75  2.5 48.75 3.75  2.5 50 3.75  2.5 50 5  2.5 48.75 5  1.25 48.75 5  1.25 50 3.75  0 48.75 3.75  0 48.75 5  0 50 5  1.25 50 5  0 50 3.75  3.75 48.75 3.75  5 48.75 3.75  5 50 3.75  5 50 5  5 48.75 5  3.75 48.75 5  3.75 50 3.75  3.75 50 5  6.25 48.75 3.75  6.25 48.75 5  1.25 33.75 6.25  1.25 32.5 6.25  0 32.5 6.25  0 32.5 7.5  1.25 33.75 7.5  1.25 32.5 7.5  2.5 32.5 7.5  2.5 33.75 7.5  2.5 35 7.5  1.25 35 6.25  2.5 35 6.25  0 33.75 6.25  0 33.75 7.5  0 35 7.5  1.25 35 7.5  0 35 6.25  1.25 36.25 6.25  2.5 36.25 6.25  2.5 37.5 6.25  2.5 37.5 7.5  2.5 36.25 7.5  1.25 36.25 7.5  1.25 37.5 6.25  0 36.25 6.25  0 36.25 7.5  0 37.5 7.5  1.25 37.5 7.5  0 37.5 6.25  3.75 36.25 6.25  5 36.25 6.25  5 37.5 6.25  5 37.5 7.5  3.75 35 6.25  5 35 6.25  5 35 7.5  5 36.25 7.5  3.75 36.25 7.5  3.75 35 7.5  3.75 37.5 6.25  3.75 37.5 7.5  6.25 36.25 6.25  7.5 36.25 6.25  7.5 37.5 6.25  7.5 37.5 7.5  6.25 35 6.25  7.5 35 6.25  7.5 35 7.5  7.5 36.25 7.5  6.25 36.25 7.5  6.25 35 7.5  6.25 37.5 6.25  6.25 37.5 7.5  8.75 36.25 6.25  10 36.25 6.25  10 37.5 6.25  10 37.5 7.5  8.75 35 6.25  10 35 6.25  10 35 7.5  10 36.25 7.5  8.75 36.25 7.5  8.75 35 7.5  8.75 37.5 6.25  8.75 37.5 7.5  11.25 36.25 6.25  11.25 36.25 7.5  11.25 37.5 7.5  12.5 37.5 7.5  11.25 37.5 6.25  1.25 38.75 6.25  2.5 38.75 6.25  2.5 40 6.25  2.5 40 7.5  2.5 38.75 7.5  1.25 38.75 7.5  1.25 40 6.25  0 38.75 6.25  0 38.75 7.5  0 40 7.5  1.25 40 7.5  0 40 6.25  3.75 38.75 6.25  5 38.75 6.25  5 40 6.25  5 40 7.5  5 38.75 7.5  3.75 38.75 7.5  3.75 40 6.25  3.75 40 7.5  6.25 38.75 6.25  7.5 38.75 6.25  7.5 40 6.25  7.5 40 7.5  7.5 38.75 7.5  6.25 38.75 7.5  6.25 40 6.25  6.25 40 7.5  8.75 38.75 6.25  10 38.75 6.25  10 40 6.25  10 40 7.5  10 38.75 7.5  8.75 38.75 7.5  8.75 40 6.25  8.75 40 7.5  11.25 38.75 6.25  11.25 38.75 7.5  12.5 38.75 7.5  12.5 40 7.5  11.25 40 7.5  11.25 40 6.25  1.25 41.25 6.25  2.5 41.25 6.25  2.5 42.5 6.25  2.5 42.5 7.5  2.5 41.25 7.5  1.25 41.25 7.5  1.25 42.5 6.25  0 41.25 6.25  0 41.25 7.5  0 42.5 7.5  1.25 42.5 7.5  0 42.5 6.25  3.75 41.25 6.25  5 41.25 6.25  5 42.5 6.25  5 42.5 7.5  5 41.25 7.5  3.75 41.25 7.5  3.75 42.5 6.25  3.75 42.5 7.5  6.25 41.25 6.25  7.5 41.25 6.25  7.5 42.5 6.25  7.5 42.5 7.5  7.5 41.25 7.5  6.25 41.25 7.5  6.25 42.5 6.25  6.25 42.5 7.5  8.75 41.25 6.25  10 41.25 6.25  10 42.5 6.25  10 42.5 7.5  10 41.25 7.5  8.75 41.25 7.5  8.75 42.5 6.25  8.75 42.5 7.5  11.25 41.25 6.25  11.25 41.25 7.5  1.25 43.75 6.25  2.5 43.75 6.25  2.5 45 6.25  2.5 45 7.5  2.5 43.75 7.5  1.25 43.75 7.5  1.25 45 6.25  0 43.75 6.25  0 43.75 7.5  0 45 7.5  1.25 45 7.5  0 45 6.25  3.75 43.75 6.25 
[...]
<PointData  Vectors="u"> 
<DataArray  type="Float64"  Name="u"  NumberOfComponents="3" format="ascii">1.9999999998760970e+02 1.2042359315875877e-10 1.4421920278351317e-10  1.9999999998751937e+02 -2.7268948423921582e-11 3.1912878889645535e-11  1.9999999998730172e+02 -1.0353400718239850e-10 -3.4172056789871071e-11  1.9999999998832936e+02 -1.0316664814435104e-10 -2.0111674399955858e-11  1.9999999998832826e+02 -1.0487155619194623e-10 -1.6750008274589797e-10  1.9999999998585142e+02 9.7004039807362011e-11 1.7523010878165469e-10  1.9999999998584875e+02 -9.9671259842156498e-11 3.0596735118212619e-11  1.9999999998556470e+02 -1.1672108809727297e-10 -1.1341627487941265e-10  1.9999999998658760e+02 -6.6753065845758722e-11 -5.3907316083711537e-11  1.9999999998585548e+02 1.4014588195025221e-10 1.0208786118182791e-10  1.9999999998585832e+02 1.3415514011762347e-10 1.1714097161237504e-10  1.9999999998573676e+02 -1.1530240228637110e-10 -4.0920309561750261e-12  1.9999999998658058e+02 -1.0590401419156997e-10 -1.6457878425166614e-10  1.9999999998660110e+02 -1.1102281071765399e-10 9.2715925875177532e-11  1.9999999998421444e+02 9.2175183519301471e-11 1.6161052427521792e-10  1.9999999998402677e+02 -1.0838559103794921e-10 4.1350383825606487e-11  1.9999999998394253e+02 -3.5900360358714312e-11 -1.2416575986481540e-10  1.9999999998481798e+02 -6.0767267393705576e-11 -9.8457327499465913e-11  1.9999999998416493e+02 1.0553776826090349e-10 9.3817555681530905e-11  1.9999999998482718e+02 -1.7724745007410408e-10 -8.1409912938519066e-11  1.9999999998490824e+02 -1.0612917714701680e-10 8.7656255973118072e-11  1.9999999998480735e+02 -8.0285319037465705e-11 -1.4519390287922729e-10  1.9999999998491873e+02 -6.3328934356715818e-11 1.5121770557632426e-11  1.9999999998755922e+02 -5.2568931531995417e-11 4.0410683634438314e-11  1.9999999998731721e+02 -8.7645259439392731e-11 -4.2146090000540481e-11  1.9999999998823927e+02 -7.3682589702383253e-11 -2.6889916210548770e-11  1.9999999998758639e+02 1.2624287795637885e-10 1.0770991058277976e-10  1.9999999998556683e+02 -1.0298489810668745e-10 -5.2330918053938608e-11  1.9999999998654837e+02 -8.1811292461889843e-11 -4.6773511380893215e-11  1.9999999998578576e+02 -7.3994501058994988e-11 7.7571361634004588e-11  1.9999999998585173e+02 1.1401576779805926e-10 1.0132371888409107e-10  1.9999999998651737e+02 -1.4277796802933584e-10 -6.6509619727434087e-11  1.9999999998664018e+02 -8.0405747536656497e-11 5.4633013068338125e-11  1.9999999998397283e+02 -4.5844015464864671e-11 -7.3554476448540076e-11  1.9999999998389865e+02 -1.0690512294238969e-10 -1.2977571805045785e-10  1.9999999998481488e+02 -8.4201075171574834e-11 -5.0150001637597514e-11  1.9999999998412687e+02 1.3009745048203791e-10 1.2762703684244052e-10  1.9999999998414501e+02 1.0082794014682017e-10 1.1552915346881266e-10  1.9999999998394350e+02 -9.9170505715131043e-11 8.3149387788897524e-12  1.9999999998476636e+02 -1.2418603650139783e-10 -1.5358474797094733e-10  1.9999999998479430e+02 -1.4796409064735689e-10 -6.5782487909885231e-11  1.9999999998485549e+02 -8.0485625884749423e-11 4.6650032840770693e-11  1.9999999998385829e+02 -1.2824673851631902e-10 -4.7170531320433271e-11  1.9999999998479862e+02 -7.8154607124805205e-11 -7.0620725441225722e-11  1.9999999998391536e+02 -2.9901120309500756e-11 1.5672170480950995e-11  1.9999999998412645e+02 1.2197158063511189e-10 1.0958650816807305e-10  1.9999999998481346e+02 -1.3485788770006509e-10 -8.3912373961353422e-11  1.9999999998575495e+02 -4.9340337316791933e-11 2.7835891680767874e-11  1.9999999998584340e+02 1.6356041603606658e-10 1.2247553358487281e-10  1.9999999998486402e+02 -3.3730196028600693e-11 2.8469222309151432e-11  2.0000000000064904e+02 2.3570642392782922e-12 7.5325863414206674e-10  1.9999999999897798e+02 -7.0820074774434470e-11 -1.2943893717623948e-10  1.9999999999879634e+02 -6.3286143266848658e-11 -5.9336055762422139e-10  1.9999999999988054e+02 -6.7042245343188776e-11 8.6098389437676438e-12  2.0000000000065677e+02 7.1767749620580184e-11 7.8441610511065938e-10  1.9999999999895329e+02 -3.0771854135392200e-10 -1.9830448925630111e-10  1.9999999999899464e+02 -1.7342888572021539e-10 -5.6970775668139557e-12  1.9999999999829785e+02 4.0276911700260193e-11 7.4499300741837292e-10  1.9999999999804908e+02 4.1024193496971838e-14 -7.2550742030831709e-11  1.9999999999825789e+02 -1.4506687860830942e-11 1.8728703531897659e-10  1.9999999999974571e+02 -5.9131618289009575e-11 -1.9232909543639358e-11  1.9999999999997959e+02 -9.4793310935002663e-11 -7.8535878276099143e-11  2.0000000000056949e+02 1.6303928750775164e-12 1.8856726401522824e-10  1.9999999999896167e+02 -1.0598061667151853e-11 1.1297191803466375e-11  1.9999999999892947e+02 -1.0699315385455763e-10 -1.4562441062544559e-10  1.9999999999899316e+02 -2.7337350058287642e-10 -5.1522218369594792e-10  1.9999999999797646e+02 -1.4502756779390809e-10 -2.1340126672906107e-10  1.9999999999802847e+02 -6.8443336662783815e-11 1.3130678916014923e-11  1.9999999999824965e+02 1.3506498404569437e-10 7.4693931986934918e-10  1.9999999999819184e+02 -1.2570468932546380e-10 -1.0007375459301832e-10  1.9999999999820562e+02 1.0540772028450686e-10 2.2438803545946980e-10  1.9999999999817317e+02 -4.8822188969482531e-11 -8.7365764319405766e-11  1.9999999999904034e+02 -1.1869314671171527e-10 -8.7169851996765504e-11  2.0000000000000659e+02 -1.6759775933383942e-10 5.4568240434091820e-11  2.0000000000060189e+02 1.7866921471267089e-10 7.8374283104207274e-10  1.9999999999909156e+02 -7.3800760582962767e-11 -1.9364963290635867e-10  1.9999999999905336e+02 2.8220059069506813e-11 4.9820209095493672e-11  1.9999999999964814e+02 -1.2203541065143324e-10 -5.9702877345093481e-11  1.9999999999999696e+02 -8.5744165937557758e-11 -3.9965736412619700e-11  2.0000000000058097e+02 1.0748784545397135e-10 2.0823523757656992e-10  1.9999999999897739e+02 -8.6390083055296004e-11 1.1640968828438816e-10  1.9999999999997121e+02 -5.0190367773354363e-11 -3.5631017576244223e-11  1.9999999999719515e+02 -7.1175750782852969e-11 -1.7295041827523952e-10  1.9999999999704639e+02 -4.1837848074306287e-11 -5.7275383323393924e-10  1.9999999999711363e+02 -2.4786977104083945e-10 -2.3045916265284436e-10  1.9999999999718523e+02 -1.6804481268153012e-10 5.3886891297117030e-11  1.9999999999651897e+02 5.6574865244594324e-11 7.7534578224653976e-10  1.9999999999625965e+02 -2.0401585317070044e-13 -1.3407622532395598e-10  1.9999999999652059e+02 2.2468527610001267e-12 2.2176750462782254e-10  1.9999999999719077e+02 -7.6089030094686216e-11 -2.4816049950460526e-10  1.9999999999720930e+02 -2.0000199393556988e-11 8.2514864635149688e-11  1.9999999999898645e+02 -1.0411754978181043e-10 -1.2859833280287070e-10  1.9999999999910489e+02 -2.3121700628522583e-10 -6.0145203417918743e-10  1.9999999999809452e+02 -2.3412170805816868e-10 -3.4136234106636540e-10  1.9999999999814369e+02 -1.1565243386029949e-10 -1.1100143182215461e-11  1.9999999999822501e+02 1.8985920871957875e-10 7.6291156081834118e-10  1.9999999999817618e+02 -8.1192912835954460e-11 -1.3238084600432548e-10  1.9999999999818345e+02 1.6174505640912392e-10 2.2781584889059461e-10  1.9999999999827170e+02 -7.9546862870597045e-11 2.6078395793466824e-11  1.9999999999905060e+02 -1.7934617580540801e-10 -6.1242360194078756e-11  2.0000000000003095e+02 -4.4253083415260253e-11 1.2496985674353410e-10  2.0000000000060194e+02 1.2456891073661751e-10 7.5236322536453454e-10  1.9999999999905816e+02 -1.4938995709015212e-10 -2.3253727001197470e-10  1.9999999999900561e+02 -9.2893105760005719e-11 -2.4613843309921487e-11  1.9999999999966988e+02 -4.9188293128400148e-11 -1.3088502317242875e-10  2.0000000000003894e+02 -1.0426418575038200e-10 -7.5234265893471133e-11  2.0000000000053376e+02 1.4127812477991285e-10 1.4092249693081157e-10  1.9999999999902877e+02 -6.5343326759025232e-11 3.8721349257625395e-11  1.9999999999997951e+02 -9.7930294187004036e-11 -4.7403786427911847e-11  1.9999999999719415e+02 -7.2284759778115046e-11 -1.6401197088796130e-10  1.9999999999707384e+02 -1.8857344874386652e-10 -4.5715805295492386e-10  1.9999999999614548e+02 -9.6590021055382927e-11 -2.5072478825129766e-10  1.9999999999629270e+02 -7.8941121673498476e-11 -1.5113399414125606e-11  1.9999999999645141e+02 1.4494646257772622e-10 7.2661198035923665e-10  1.9999999999629728e+02 1.4684452730808859e-11 -8.5563415318434059e-11  1.9999999999646965e+02 1.1667666553402200e-10 2.0627463056762630e-10  1.9999999999636469e+02 -3.1558307318737102e-11 9.9718866016813167e-11  1.9999999999714126e+02 -1.4511822582444038e-10 -1.3685309452228958e-10  1.9999999999714387e+02 -1.4803641263649163e-10 -2.5877824423141262e-10  1.9999999999720629e+02 -7.5134837338680892e-11 -1.0799855484420929e-12  1.9999999999726339e+02 -2.5714907768322828e-11 6.0551763553633099e-11  1.9999999999541853e+02 -1.2525147808800108e-10 -1.1326224803965245e-10  1.9999999999527361e+02 -1.4064970261847887e-11 -1.2861093045243384e-10  1.9999999999535501e+02 -1.0440818152917548e-10 -2.3249774918691290e-10  1.9999999999540628e+02 7.1735156238151138e-11 -5.9809885168188803e-12  1.9999999999464228e+02 -1.7633541346799261e-12 1.5870635852193255e-10  1.9999999999436690e+02 2.1974499624274338e-11 5.2612789373903558e-11  1.9999999999468957e+02 9.7821063884883237e-11 1.5986651040513986e-10  1.9999999999548044e+02 -7.5008716092672572e-12 -2.6250423899097308e-10  1.9999999999536891e+02 -2.4999357251945195e-10 -6.6577322418962324e-11  1.9999999999546864e+02 -1.2936466401944920e-10 1.1049111158891885e-11  1.9999999999467275e+02 5.1404514740815240e-11 6.4187527953830658e-10  1.9999999999449514e+02 9.1141403500557113e-11 -4.9133463915370136e-11  1.9999999999545267e+02 -3.4754623157168093e-11 4.8303546008567933e-11  1.9999999999897366e+02 -7.9384118338420450e-11 -8.9838809885831441e-11  1.9999999999913260e+02 -2.5101004403963208e-10 -5.2834056905846054e-10  1.9999999999814429e+02 -2.5091422571831301e-10 -3.1870112310363751e-10  1.9999999999816634e+02 -1.0302737084865142e-10 1.3259944858772186e-11  1.9999999999817589e+02 1.8980165176684410e-10 7.4738370544479334e-10  1.9999999999812638e+02 -5.9863883945194858e-11 -4.9816253226250271e-11  1.9999999999816924e+02 1.4247085505751083e-10 2.3016179141867505e-10  1.9999999999822910e+02 -2.0708146357532290e-11 1.1224245917178869e-11  1.9999999999906743e+02 -1.0289806848446822e-10 -1.1798780529852965e-10  2.0000000000002601e+02 -7.5135937549024716e-11 4.6340776180396544e-11  2.0000000000058867e+02 1.9033938649873997e-10 8.0552553731492933e-10  1.9999999999904804e+02 -1.2717323194940215e-10 -2.0837702451263807e-10  1.9999999999902914e+02 -6.0603943559700967e-11 7.8851628782079243e-12  1.9999999999960505e+02 -4.0799769345039180e-11 -7.8426301185560882e-11  2.0000000000001705e+02 -6.5253817389196020e-11 -9.6851573988268328e-11  2.0000000000053771e+02 1.5331610147596302e-10 1.6114357404512046e-10  1.9999999999900970e+02 -8.7552327560086956e-11 4.9328903591077778e-11  2.0000000000003604e+02 -5.9898171017836682e-11 -8.0330325731126522e-11  1.9999999999719853e+02 -1.0040892890185436e-10 -1.8992465847661045e-10  1.9999999999709391e+02 -2.4451225089686826e-10 -5.1795590603366309e-10  1.9999999999617134e+02 -1.2750956851522644e-10 -2.2223546111644163e-10  1.9999999999627084e+02 -3.8197156376176611e-11 1.1423930661183180e-11  1.9999999999650169e+02 1.4917026444853660e-10 7.1537755318813835e-10  1.9999999999635554e+02 7.9743684977824621e-12 -1.0391716157289719e-10  1.9999999999645624e+02 9.7629096072902140e-11 1.8686798206962977e-10  1.9999999999634844e+02 -2.9963431786378238e-11 5.9375908214624698e-11  1.9999999999716067e+02 -1.1380616140019249e-10 -1.0165959644723067e-10  1.9999999999715553e+02 -1.5467296394182984e-10 -2.1712688453361836e-10  1.9999999999724602e+02 -1.0748497137139724e-10 3.1168500228129203e-12  1.9999999999722158e+02 4.4830232220526067e-12 9.8270391407286014e-11  1.9999999999539131e+02 -6.0169594692414055e-11 -1.6527623461266586e-10  1.9999999999523948e+02 -2.3079548851474506e-10 -4.3830883576984959e-10  1.9999999999445430e+02 -1.6709275513738258e-10 -5.9926964594764185e-11  1.9999999999443304e+02 -8.0507287109667999e-11 -5.4903689974775040e-11  1.9999999999466294e+02 1.4696888672922514e-10 7.1931548814984101e-10  1.9999999999449810e+02 -1.9926868834444355e-12 -7.1367824471118875e-11  1.9999999999463691e+02 8.4930405987426014e-11 1.8294881925141213e-10  1.9999999999442630e+02 -4.7478220916450539e-11 1.1802494891891821e-10  1.9999999999535405e+02 -1.1496421410136717e-10 -2.1224098638611550e-10  1.9999999999532636e+02 -2.3789987202138531e-10 -2.1787655126415168e-10  1.9999999999534288e+02 -1.1925958690918649e-10 1.3187285498678264e-11  1.9999999999542609e+02 -2.8327906154448563e-11 3.2042264766641546e-11  1.9999999999354839e+02 -1.5531339871784015e-10 -5.1017667926536429e-11  1.9999999999346235e+02 2.9486864158832325e-11 1.2082991547900829e-10  1.9999999999339016e+02 -2.4234334853914935e-10 4.0695245390553747e-11  1.9999999999359409e+02 -1.2392965912618790e-10 1.9371930459371485e-10  1.9999999999286086e+02 4.7130366056455569e-11 1.0491409570881926e-10  1.9999999999269249e+02 -8.2172573357258742e-11 5.3033822489137377e-11  1.9999999999287010e+02 8.9774819106432425e-11 1.1798235170082173e-10  1.9999999999365309e+02 4.2073090188202871e-12 -2.5920963092418014e-10  1.9999999999351814e+02 -2.2906714176655188e-10 -1.0449458891602612e-10  1.9999999999359608e+02 -8.8991338444690415e-11 5.5572608674487144e-11  1.9999999999286533e+02 6.2369453631283177e-11 6.9032311887489229e-10  1.9999999999268246e+02 6.9952303666100494e-11 -3.0114743831863558e-11  1.9999999999360725e+02 3.9172004561848581e-11 1.1183348032240020e-11  1.9999999999897386e+02 -9.3257048108674858e-11 -9.9155641751549377e-11  1.9999999999909292e+02 -2.3408466198136351e-10 -5.7183953576141775e-10  1.9999999999808304e+02 -2.1205293477401576e-10 -2.9732577857963821e-10  1.9999999999815137e+02 -4.4564754018059017e-11 1.3199467918057172e-11  1.9999999999818056e+02 1.7640088460221615e-10 7.3305532585824001e-10  1.9999999999813213e+02 -6.6189505867929983e-11 -6.7403552567293095e-11  1.9999999999815279e+02 1.5302211791342485e-10 2.1141518306394085e-10  1.9999999999823004e+02 -3.2838733993144152e-11 -7.2847212762636012e-12  1.9999999999906814e+02 -1.3578428944413104e-10 -1.3346866906104118e-10  2.0000000000003919e+02 -7.1793126622038399e-11 7.2444442937397675e-11  2.0000000000059237e+02 1.1470231300555531e-10 7.7362218851615823e-10  1.9999999999906495e+02 -1.7392577730007897e-10 -1.7645702617391755e-10  1.9999999999904293e+02 -7.7572170795118816e-11 -1.5508610712906221e-11  1.9999999999962856e+02 -7.2403614310200131e-11 -9.8430049718696727e-11  1.9999999999996032e+02 -8.4229830592417030e-11 -1.0232700432592956e-10  2.0000000000053325e+02 1.1131022243379179e-10 1.7283771100024319e-10  1.9999999999906566e+02 -6.3933363226800751e-11 2.2276082402773759e-11  2.0000000000000088e+02 -1.0978286663740525e-10 -6.6802153842808200e-11  1.9999999999720691e+02 -6.7224450381367704e-11 -1.6935432524196074e-10  1.9999999999707555e+02 -2.3042608947632263e-10 -4.6216321338850802e-10  1.9999999999614852e+02 -1.2199214491228812e-10 -2.0829036405754720e-10  1.9999999999628434e+02 -5.6513869936731222e-11 1.3097531455484009e-11  1.9999999999649449e+02 1.4734786251620310e-10 7.3376811538725434e-10  1.9999999999632547e+02 -1.6681713992787051e-11 -1.0586267503125278e-10  1.9999999999643416e+02 9.6860801428515675e-11 1.7131943778547614e-10  1.9999999999632044e+02 2.7243893598728917e-11 1.2419703075048190e-11  1.9999999999716266e+02 -1.2693240133272002e-10 -1.3670074460338942e-10  1.9999999999716007e+02 -1.7490542144325857e-10 -2.0473751844613054e-10  1.9999999999721175e+02 -7.1512555352075238e-11 1.8731476749606822e-11  1.9999999999722786e+02 2.1151024121084329e-11 6.1981572088272506e-11  1.9999999999535424e+02 -9.4173003904469129e-11 -2.0168333640276330e-10  1.9999999999520881e+02 -2.0099126154563438e-10 -5.3845227857822558e-10  1.9999999999433894e+02 -1.5338747404687292e-10 -2.3792428096395449e-10  1.9999999999444529e+02 -5.0731782882554516e-11 1.9568289549034709e-11  1.9999999999467133e+02 1.2846202697266809e-10 7.1942659189195777e-10  1.9999999999450233e+02 -1.9891185336615862e-12 -9.1661629190835750e-11  1.9999999999465999e+02 1.1630229731483377e-10 1.9756605322712701e-10  1.9999999999454403e+02 -6.0697006046869267e-11 4.3729413929581447e-11  1.9999999999531036e+02 -1.4158350926125382e-10 -1.6589694183421498e-10  1.9999999999531354e+02 -1.6506190353267791e-10 -2.3226275698374584e-10  1.9999999999537289e+02 -9.8502701844208317e-11 5.8988650350262190e-11  1.9999999999539156e+02 4.9929663234566988e-11 2.5356017470574363e-11  1.9999999999355396e+02 -1.2347126017449780e-10 -1.6157167503692856e-10  1.9999999999340349e+02 -2.8316018389786350e-10 -5.2154352641700126e-10  1.9999999999351252e+02 -1.3348005742114930e-10 -2.4591584455793753e-10  1.9999999999901294e+02 -1.1219285228493451e-10 -7.8131759076114582e-11  1.9999999999913609e+02 -2.3758272561231648e-10 -5.5499991574125762e-10  1.9999999999809046e+02 -2.5232032950645642e-10 -2.9752510715196037e-10  1.9999999999816950e+02 -6.3510662717243853e-11 2.2748496819740818e-11  1.9999999999819579e+02 1.6536601822925629e-10 7.2805194971682142e-10  1.9999999999815947e+02 -9.2149577151868791e-11 -9.3103535617204871e-11  1.9999999999818061e+02 1.5303258422795312e-10 1.8327068664992617e-10  1.9999999999826289e+02 -1.1032681759582737e-10 -5.1390141523489581e-11  1.9999999999906314e+02 -1.9580441811399807e-10 -1.4215465109875947e-10  2.0000000000000639e+02 -8.3100057047588660e-11 5.2844516973748737e-11  2.0000000000061041e+02 1.0628351512699031e-10 7.5781964913478052e-10  1.9999999999908385e+02 -1.8376152748842061e-10 -2.3421546250778712e-10  1.9999999999905836e+02 -1.0104213305850900e-10 1.9209678776837650e-11  1.9999999999961818e+02 -7.8090198342265556e-11 -8.9998418805545436e-11  2.0000000000002277e+02 -5.4223490500826486e-11 -1.0168379402023825e-10  2.0000000000052916e+02 9.9635430601758441e-11 1.8176163283937745e-10  1.9999999999899069e+02 -8.5817043544414077e-11 5.5257117130957834e-11  1.9999999999996632e+02 -1.0953669568264775e-10 -4.1287094397302890e-11  1.9999999999718685e+02 -7.3843147194317781e-11 -1.4173004051109999e-10  1.9999999999706625e+02 -2.3184238471936517e-10 -5.3055408607948879e-10  1.9999999999616270e+02 -1.2566743188192303e-10 -2.0716623186018111e-10  1.9999999999630057e+02 -7.5315000893915826e-11 2.6819130203160191e-11  1.9999999999647730e+02 1.3660333482147180e-10 7.4468000544414696e-10  1.9999999999633994e+02 -3.9660434615079290e-11 -9.2662846171174890e-11  1.9999999999644919e+02 8.5361037089299460e-11 1.5094310836379526e-10  1.9999999999635068e+02 -4.6328249206747518e-12 1.2042751657138413e-11  1.9999999999712833e+02 -1.5124602838186597e-10 -1.7359841637612894e-10  1.9999999999715357e+02 -1.6594765865527003e-10 -2.1837015486348230e-10  1.9999999999720265e+02 -7.6657927846135672e-11 -1.0146927277424173e-11  1.9999999999720899e+02 -3.9805587349108483e-11 -2.5063868144305754e-11  1.9999999999533802e+02 -6.9769530828075346e-11 -1.8103342988352710e-10  1.9999999999520870e+02 -2.0961603391713573e-10 -4.6801820734994606e-10  1.9999999999529854e+02 -1.2508985970906908e-10 -2.2265486392280783e-10  1.9999999999452839e+02 -5.1868006110715194e-11 2.9700850142091390e-11  1.9999999999465211e+02 1.0855805781794370e-10 1.4393210594862896e-10  1.9999999999528836e+02 -2.4167387465689360e-10 -1.9720602387009117e-10  1.9999999999534413e+02 -1.2588175918731647e-10 1.2022986586585771e-11  1.9999999999543107e+02 -6.3817118146551908e-11 3.1393600988367099e-11  1.9999999999902448e+02 -8.5287764144549035e-11 -8.8081227098274070e-11  1.9999999999912302e+02 -2.2329630597714642e-10 -6.1025582660418510e-10  1.9999999999817112e+02 -2.2365161785914757e-10 -3.2002632626762549e-10  1.9999999999817425e+02 -4.8829155400604350e-11 5.1936020364945133e-11  1.9999999999820855e+02 1.2152098805768061e-10 7.8444628325606826e-10  1.9999999999815526e+02 -8.5990772948780452e-11 -1.2573547790151436e-10  1.9999999999819443e+02 7.0820227671277168e-11 1.9436868413819809e-10  1.9999999999