<?xml version="1.0"?>
<VTKFile type="UnstructuredGrid"  version="0.1"  >
<UnstructuredGrid>
<Piece  NumberOfPoints="137" NumberOfCells="420">
<Points>
<DataArray  type="Float64"  NumberOfComponents="3"  format="ascii">40 20 40  40 20 35  40 15 35  35 15 35  40 10 40  40 15 40  30 10 40  35 15 40  35 10 40  35 10 35  35 20 35  30 15 40  30 15 35  30 20 40  35 20 40  45 15 40  45 15 35  45 20 40  50 20 40  45 20 35  40 25 40  40 25 35  35 25 35  35 25 40  30 25 40  30 25 35  45 25 40  45 25 35  50 25 40  50 30 40  35 15 45  40 15 45  40 20 45  40 20 50  35 20 45  45 15 45  45 20 45  50 20 45  50 20 50  45 20 50  35 25 45  40 25 45  40 25 50  45 25 45  50 25 45  50 30 45  50 30 50  50 25 50  45 25 50  30 0 30  35 5 35  35 0 35  30 0 35  30 0 40  35 5 40  35 0 40  40 0 40  40 5 40  30 5 35  30 5 40  45 5 40  45 0 40  45 5 35  50 0 40  50 5 40  50 10 40  45 10 40  50 15 40  35 5 45  40 5 45  40 10 45  40 10 50  35 0 45  40 0 45  40 0 50  40 5 50  30 0 45  30 0 50  35 5 50  35 0 50  35 10 45  30 5 45  30 5 50  30 10 50  35 10 50  30 10 45  45 5 45  50 5 45  50 10 45  50 10 50  45 0 45  50 0 45  50 0 50  50 5 50  45 5 50  45 0 50  45 10 45  45 10 50  40 15 50  35 15 50  30 15 45  30 15 50  30 20 50  35 20 50  30 20 45  50 15 45  50 15 50  45 15 50  35 25 50  30 25 45  30 25 50  25 5 35  25 0 35  25 5 40  25 0 40  20 10 40  25 10 40  25 10 35  25 15 35  25 15 40  25 25 35  25 25 40  25 5 45  25 0 45  25 5 50  25 0 50  25 10 45  20 10 50  25 10 50  20 10 45  25 15 45  25 15 50  25 20 45  20 20 50  25 20 50  25 25 45  25 25 50  </DataArray>
</Points>
<Cells>
<DataArray  type="UInt32"  Name="connectivity"  format="ascii">0 3 2 1  4 3 2 5  0 3 2 5  6 3 7 8  6 3 9 8  4 3 5 7  4 3 7 8  4 3 9 8  0 3 5 7  0 3 1 10  6 3 7 11  6 3 12 11  13 3 7 14  13 3 7 11  13 3 12 11  0 3 7 14  13 3 10 14  0 3 10 14  4 16 5 15  4 2 16 5  0 16 17 15  0 16 5 15  0 2 16 5  18 16 17 15  0 16 19 17  0 16 1 19  0 2 16 1  18 16 19 17  0 21 20 22  0 1 21 22  0 1 10 22  13 14 22 23  13 10 14 22  0 20 22 23  0 14 22 23  0 10 14 22  13 22 23 24  13 22 25 24  0 27 17 26  0 19 27 17  0 1 19 27  18 27 26 28  18 27 17 26  18 19 27 17  29 27 26 28  0 27 20 26  0 21 27 20  0 1 21 27  6 7 8 30  4 5 31 30  4 5 7 30  4 7 8 30  0 32 31 30  0 5 31 30  0 5 7 30  33 32 31 30  6 7 11 30  13 14 30 34  13 7 14 30  13 7 11 30  0 32 30 34  0 14 30 34  0 7 14 30  33 32 30 34  4 5 15 35  0 17 36 35  0 17 15 35  0 5 15 35  18 36 35 37  18 17 36 35  18 17 15 35  38 36 35 37  4 5 31 35  0 32 36 35  0 32 31 35  0 5 31 35  33 36 35 39  33 32 36 35  33 32 31 35  38 36 35 39  13 14 23 40  0 20 41 40  0 20 23 40  0 14 23 40  13 14 34 40  0 32 41 40  0 32 34 40  0 14 34 40  33 41 40 42  33 32 41 40  33 32 34 40  13 23 24 40  0 17 26 43  18 43 28 44  18 26 43 28  18 17 26 43  29 43 44 45  29 43 28 44  29 26 43 28  46 43 44 45  0 17 36 43  18 43 37 44  18 36 43 37  18 17 36 43  38 43 44 47  38 43 37 44  38 36 43 37  46 43 44 47  0 32 36 43  33 43 39 48  33 36 43 39  33 32 36 43  38 43 48 47  38 43 39 48  38 36 43 39  46 43 48 47  0 20 26 43  0 32 41 43  33 43 42 48  33 41 43 42  33 32 41 43  0 20 41 43  49 50 51 52  53 50 54 55  53 50 51 55  53 50 51 52  56 50 57 54  56 50 54 55  56 50 51 55  4 50 57 54  49 50 52 58  53 50 54 59  53 50 58 59  53 50 52 58  6 8 50 54  6 50 54 59  6 50 58 59  4 8 50 54  6 9 8 50  4 9 8 50  56 62 60 61  63 62 60 64  63 62 60 61  65 62 60 64  56 62 57 60  4 62 66 60  4 62 57 60  65 62 66 60  4 16 15 66  65 16 15 67  65 16 15 66  18 16 15 67  53 54 55 68  56 57 69 68  56 57 54 68  56 54 55 68  4 70 69 68  4 57 69 68  4 57 54 68  71 70 69 68  53 55 68 72  56 69 73 68  56 73 68 72  56 55 68 72  74 69 68 75  74 69 73 68  74 73 68 72  71 69 68 75  53 68 72 76  77 68 78 79  77 68 72 79  77 68 72 76  74 68 75 78  74 68 78 79  74 68 72 79  71 68 75 78  53 54 59 68  6 8 68 80  6 8 54 68  6 54 59 68  4 70 68 80  4 8 68 80  4 8 54 68  71 70 68 80  53 68 76 81  77 68 78 82  77 68 81 82  77 68 76 81  83 68 78 84  83 68 78 82  83 68 81 82  71 68 78 84  53 59 68 81  6 68 80 85  6 68 81 85  6 59 68 81  83 68 80 84  83 68 80 85  83 68 81 85  71 68 80 84  56 60 61 86  63 86 64 87  63 60 86 64  63 60 61 86  65 86 88 87  65 86 64 87  65 60 86 64  89 86 88 87  56 61 86 90  63 86 87 91  63 86 90 91  63 61 86 90  92 86 87 93  92 86 87 91  92 86 90 91  89 86 87 93  56 73 86 90  74 86 94 95  74 86 90 95  74 73 86 90  92 86 94 93  92 86 94 95  92 86 90 95  89 86 94 93  56 57 60 86  4 66 96 86  4 66 60 86  4 57 60 86  65 96 86 88  65 66 96 86  65 66 60 86  89 96 86 88  56 69 73 86  74 86 75 94  74 69 86 75  74 69 73 86  71 86 97 94  71 86 75 94  71 69 86 75  89 86 97 94  56 57 69 86  4 70 96 86  4 70 69 86  4 57 69 86  71 96 86 97  71 70 96 86  71 70 69 86  89 96 86 97  6 8 30 80  4 31 30 70  4 30 70 80  4 8 30 80  71 31 30 98  71 31 30 70  71 30 70 80  33 31 30 98  6 30 80 85  83 30 84 99  83 30 80 84  83 30 80 85  71 30 98 99  71 30 84 99  71 30 80 84  33 30 98 99  6 30 85 100  83 30 99 101  83 30 100 101  83 30 85 100  102 30 99 103  102 30 99 101  102 30 100 101  33 30 99 103  6 11 30 100  13 30 34 104  13 30 100 104  13 11 30 100  102 30 34 103  102 30 34 104  102 30 100 104  33 30 34 103  4 15 35 66  65 35 67 105  65 15 35 67  65 15 35 66  18 35 37 105  18 35 67 105  18 15 35 67  38 35 37 105  4 35 66 96  65 35 88 105  65 35 96 88  65 35 66 96  89 35 105 106  89 35 88 105  89 35 96 88  38 35 105 106  4 35 70 96  71 35 97 107  71 35 96 97  71 35 70 96  89 35 107 106  89 35 97 107  89 35 96 97  38 35 107 106  4 31 35 70  71 35 98 107  71 31 35 98  71 31 35 70  33 35 39 107  33 35 98 107  33 31 35 98  38 35 39 107  13 34 40 104  102 40 103 108  102 34 40 103  102 34 40 104  33 40 42 108  33 40 103 108  33 34 40 103  13 40 104 109  102 40 108 110  102 40 110 109  102 40 104 109  13 24 40 109  49 52 58 111  49 52 111 112  53 58 59 111  53 52 58 111  53 52 111 112  6 58 59 111  53 59 111 113  53 111 113 114  53 111 112 114  6 59 111 113  115 111 116 113  6 111 116 113  115 111 117 116  6 111 117 116  6 12 11 118  13 12 11 118  115 118 116 119  115 117 118 116  6 11 118 119  6 118 116 119  6 117 118 116  13 11 118 119  13 25 24 120  13 24 120 121  53 59 81 122  53 59 113 122  53 113 114 122  6 81 85 122  6 59 81 122  6 59 113 122  83 81 85 122  53 76 81 122  53 76 122 123  53 114 122 123  77 81 82 122  77 76 81 122  77 76 122 123  83 81 82 122  77 82 122 124  77 122 124 125  77 122 123 125  83 82 122 124  115 116 126 122  115 116 113 122  6 85 126 122  6 116 126 122  6 116 113 122  83 85 126 122  127 122 128 124  83 122 128 124  115 129 126 122  127 126 122 128  127 129 126 122  83 126 122 128  115 116 119 130  6 11 100 130  6 11 119 130  6 116 119 130  13 100 104 130  13 11 100 130  13 11 119 130  102 100 104 130  115 116 126 130  6 85 100 130  6 85 126 130  6 116 126 130  83 100 101 130  83 85 100 130  83 85 126 130  102 100 101 130  115 129 126 130  127 130 128 131  127 126 130 128  127 129 126 130  83 101 130 131  83 130 128 131  83 126 130 128  102 101 130 131  13 104 130 132  102 104 130 132  133 130 131 134  102 130 131 134  133 130 132 134  102 130 132 134  13 24 109 135  13 24 121 135  13 104 109 135  13 104 132 135  102 110 109 135  102 104 109 135  102 104 132 135  133 135 134 136  133 132 135 134  102 110 135 136  102 135 134 136  102 132 135 134  </DataArray>
<DataArray  type="UInt32"  Name="offsets"  format="ascii">4 8 12 16 20 24 28 32 36 40 44 48 52 56 60 64 68 72 76 80 84 88 92 96 100 104 108 112 116 120 124 128 132 136 140 144 148 152 156 160 164 168 172 176 180 184 188 192 196 200 204 208 212 216 220 224 228 232 236 240 244 248 252 256 260 264 268 272 276 280 284 288 292 296 300 304 308 312 316 320 324 328 332 336 340 344 348 352 356 360 364 368 372 376 380 384 388 392 396 400 404 408 412 416 420 424 428 432 436 440 444 448 452 456 460 464 468 472 476 480 484 488 492 496 500 504 508 512 516 520 524 528 532 536 540 544 548 552 556 560 564 568 572 576 580 584 588 592 596 600 604 608 612 616 620 624 628 632 636 640 644 648 652 656 660 664 668 672 676 680 684 688 692 696 700 704 708 712 716 720 724 728 732 736 740 744 748 752 756 760 764 768 772 776 780 784 788 792 796 800 804 808 812 816 820 824 828 832 836 840 844 848 852 856 860 864 868 872 876 880 884 888 892 896 900 904 908 912 916 920 924 928 932 936 940 944 948 952 956 960 964 968 972 976 980 984 988 992 996 1000 1004 1008 1012 1016 1020 1024 1028 1032 1036 1040 1044 1048 1052 1056 1060 1064 1068 1072 1076 1080 1084 1088 1092 1096 1100 1104 1108 1112 1116 1120 1124 1128 1132 1136 1140 1144 1148 1152 1156 1160 1164 1168 1172 1176 1180 1184 1188 1192 1196 1200 1204 1208 1212 1216 1220 1224 1228 1232 1236 1240 1244 1248 1252 1256 1260 1264 1268 1272 1276 1280 1284 1288 1292 1296 1300 1304 1308 1312 1316 1320 1324 1328 1332 1336 1340 1344 1348 1352 1356 1360 1364 1368 1372 1376 1380 1384 1388 1392 1396 1400 1404 1408 1412 1416 1420 1424 1428 1432 1436 1440 1444 1448 1452 1456 1460 1464 1468 1472 1476 1480 1484 1488 1492 1496 1500 1504 1508 1512 1516 1520 1524 1528 1532 1536 1540 1544 1548 1552 1556 1560 1564 1568 1572 1576 1580 1584 1588 1592 1596 1600 1604 1608 1612 1616 1620 1624 1628 1632 1636 1640 1644 1648 1652 1656 1660 1664 1668 1672 1676 1680 </DataArray>
<DataArray  type="UInt8"  Name="types"  format="ascii">10 10 10 10 10 10 10 10 10 10 10 10 10 10 10 10 10 10 10 10 10 10 10 10 10 10 10 10 10 10 10 10 10 10 10 10 10 10 10 10 10 10 10 10 10 10 10 10 10 10 10 10 10 10 10 10 10 10 10 10 10 10 10 10 10 10 10 10 10 10 10 10 10 10 10 10 10 10 10 10 10 10 10 10 10 10 10 10 10 10 10 10 10 10 10 10 10 10 10 10 10 10 10 10 10 10 10 10 10 10 10 10 10 10 10 10 10 10 10 10 10 10 10 10 10 10 10 10 10 10 10 10 10 10 10 10 10 10 10 10 10 10 10 10 10 10 10 10 10 10 10 10 10 10 10 10 10 10 10 10 10 10 10 10 10 10 10 10 10 10 10 10 10 10 10 10 10 10 10 10 10 10 10 10 10 10 10 10 10 10 10 10 10 10 10 10 10 10 10 10 10 10 10 10 10 10 10 10 10 10 10 10 10 10 10 10 10 10 10 10 10 10 10 10 10 10 10 10 10 10 10 10 10 10 10 10 10 10 10 10 10 10 10 10 10 10 10 10 10 10 10 10 10 10 10 10 10 10 10 10 10 10 10 10 10 10 10 10 10 10 10 10 10 10 10 10 10 10 10 10 10 10 10 10 10 10 10 10 10 10 10 10 10 10 10 10 10 10 10 10 10 10 10 10 10 10 10 10 10 10 10 10 10 10 10 10 10 10 10 10 10 10 10 10 10 10 10 10 10 10 10 10 10 10 10 10 10 10 10 10 10 10 10 10 10 10 10 10 10 10 10 10 10 10 10 10 10 10 10 10 10 10 10 10 10 10 10 10 10 10 10 10 10 10 10 10 10 10 10 10 10 10 10 10 10 10 10 10 10 10 10 10 10 10 10 10 10 10 10 10 10 10 10 10 10 10 10 10 10 10 10 10 10 10 10 10 10 10 10 10 </DataArray>
</Cells>
<PointData  Scalars="p"> 
<DataArray  type="Float64"  Name="p"  format="ascii">8.3999999999962931e+00  8.3999999999962291e+00  8.3999999999961670e+00  8.5999999999945409e+00  8.3999999999962878e+00  8.3999999999962220e+00  8.7999999999932825e+00  8.5999999999945640e+00  8.5999999999946155e+00  8.5999999999945675e+00  8.5999999999945622e+00  8.7999999999931919e+00  8.7999999999931440e+00  8.7999999999932825e+00  8.5999999999946084e+00  8.1999999999979512e+00  8.1999999999979387e+00  8.1999999999980115e+00  8.0000000000000000e+00  8.1999999999979618e+00  8.3999999999962309e+00  8.3999999999961705e+00  8.5999999999945356e+00  8.5999999999945480e+00  8.7999999999931919e+00  8.7999999999931369e+00  8.1999999999979583e+00  8.1999999999979281e+00  8.0000000000000000e+00  8.0000000000000000e+00  8.5999999999945409e+00  8.3999999999961688e+00  8.3999999999962363e+00  8.3999999999962984e+00  8.5999999999945391e+00  8.1999999999979423e+00  8.1999999999979654e+00  8.0000000000000000e+00  8.0000000000000000e+00  8.1999999999980062e+00  8.5999999999945143e+00  8.3999999999961616e+00  8.3999999999962025e+00  8.1999999999979263e+00  8.0000000000000000e+00  8.0000000000000000e+00  8.0000000000000000e+00  8.0000000000000000e+00  8.1999999999979405e+00  8.7999999999933038e+00  8.5999999999945391e+00  8.5999999999945640e+00  8.7999999999932150e+00  8.7999999999932843e+00  8.5999999999945516e+00  8.5999999999946120e+00  8.3999999999962931e+00  8.3999999999962096e+00  8.7999999999931493e+00  8.7999999999931919e+00  8.1999999999979494e+00  8.1999999999979973e+00  8.1999999999979316e+00  8.0000000000000000e+00  8.0000000000000000e+00  7.9999999999999991e+00  8.1999999999979991e+00  8.0000000000000000e+00  8.5999999999945498e+00  8.3999999999961616e+00  8.3999999999962149e+00  8.3999999999962842e+00  8.5999999999945480e+00  8.3999999999962043e+00  8.3999999999962824e+00  8.3999999999962061e+00  8.7999999999932008e+00  8.7999999999932701e+00  8.5999999999945462e+00  8.5999999999945906e+00  8.5999999999945462e+00  8.7999999999931280e+00  8.7999999999931955e+00  8.7999999999932754e+00  8.5999999999945995e+00  8.7999999999931866e+00  8.1999999999979281e+00  8.0000000000000000e+00  8.0000000000000000e+00  8.0000000000000000e+00  8.1999999999979369e+00  8.0000000000000000e+00  8.0000000000000000e+00  8.0000000000000000e+00  8.1999999999979352e+00  8.1999999999979885e+00  8.1999999999979529e+00  8.1999999999979973e+00  8.3999999999962114e+00  8.5999999999945409e+00  8.7999999999931227e+00  8.7999999999931884e+00  8.7999999999932612e+00  8.5999999999946013e+00  8.7999999999931777e+00  8.0000000000000000e+00  8.0000000000000018e+00  8.1999999999979423e+00  8.5999999999945338e+00  8.7999999999931173e+00  8.7999999999931795e+00  8.9999999999919300e+00  8.9999999999919531e+00  8.9999999999919407e+00  8.9999999999919904e+00  9.1999999999911033e+00  8.9999999999919904e+00  8.9999999999919407e+00  8.9999999999919265e+00  8.9999999999919158e+00  8.9999999999919016e+00  8.9999999999919122e+00  8.9999999999918980e+00  8.9999999999919247e+00  8.9999999999919140e+00  8.9999999999919673e+00  8.9999999999919265e+00  9.1999999999910802e+00  8.9999999999919726e+00  9.1999999999910251e+00  8.9999999999918892e+00  8.9999999999919016e+00  8.9999999999918980e+00  9.1999999999910482e+00  8.9999999999919531e+00  8.9999999999918838e+00  8.9999999999918856e+00  </DataArray> 
</PointData> 
</Piece>
</UnstructuredGrid>
</VTKFile>