<?xml version="1.0"?>
<VTKFile type="UnstructuredGrid"  version="0.1"  >
<UnstructuredGrid>
<Piece  NumberOfPoints="132" NumberOfCells="410">
<Points>
<DataArray  type="Float64"  NumberOfComponents="3"  format="ascii">20 30 20  20 35 25  20 35 20  15 35 25  20 40 20  20 40 25  20 40 30  20 30 25  15 30 25  20 30 30  20 35 30  10 30 30  15 35 30  15 30 30  15 40 25  15 40 20  15 40 30  25 35 25  25 30 25  25 35 30  25 30 30  30 30 30  25 40 30  30 40 30  25 40 25  20 45 25  15 45 25  20 45 30  20 50 30  15 45 30  25 45 25  25 45 30  25 50 30  30 50 30  15 35 35  20 35 35  20 40 35  20 40 40  15 40 35  15 40 40  25 35 35  25 40 35  25 40 40  30 40 40  20 45 35  15 45 35  20 50 35  20 50 40  20 45 40  15 45 40  15 50 35  15 50 40  25 45 35  25 45 40  25 50 35  25 50 40  30 50 40  15 30 35  20 30 35  20 30 40  20 35 40  10 30 35  10 30 40  15 35 40  15 30 40  25 30 35  25 35 40  25 30 40  30 30 40  30 35 40  15 35 45  20 35 45  20 40 45  20 40 50  15 30 45  20 30 45  20 30 50  20 35 50  10 30 45  10 30 50  15 35 50  15 30 50  15 40 45  15 40 50  25 35 45  25 30 45  30 30 45  30 30 50  25 35 50  25 30 50  30 35 50  30 40 50  25 40 45  25 40 50  20 45 45  15 45 45  20 50 45  20 50 50  20 45 50  15 45 50  15 50 45  15 50 50  25 45 45  25 45 50  25 50 45  25 50 50  30 50 50  25 40 20  30 40 20  20 50 25  25 50 25  20 25 25  15 25 25  20 25 20  20 25 30  15 25 30  25 25 30  25 25 25  20 25 35  15 25 35  25 25 35  30 25 40  25 25 40  25 25 45  30 25 50  25 25 50  15 25 40  20 25 45  15 25 45  20 20 50  20 25 50  15 25 50  </DataArray>
</Points>
<Cells>
<DataArray  type="UInt32"  Name="connectivity"  format="ascii">0 3 2 1  4 3 1 5  4 3 2 1  6 3 1 5  0 3 1 7  0 3 8 7  9 3 1 10  9 3 1 7  9 3 8 7  6 3 1 10  11 3 12 13  11 3 8 13  9 3 12 10  9 3 12 13  9 3 8 13  6 3 12 10  4 3 14 5  4 3 15 14  6 3 14 5  6 3 12 16  6 3 14 16  0 7 18 17  9 17 20 19  9 18 17 20  9 7 18 17  21 17 20 19  21 18 17 20  0 1 7 17  9 17 10 19  9 1 17 10  9 1 7 17  6 17 22 19  6 17 10 19  6 1 17 10  23 17 22 19  0 2 1 17  4 17 5 24  4 1 17 5  4 2 1 17  6 17 24 22  6 17 5 24  6 1 17 5  23 17 24 22  4 26 5 25  4 14 26 5  4 15 14 26  6 26 25 27  6 26 5 25  6 14 26 5  28 26 25 27  6 26 29 27  6 26 16 29  6 14 26 16  28 26 29 27  4 5 24 30  6 30 22 31  6 24 30 22  6 5 24 30  23 30 22 31  23 24 30 22  4 5 25 30  6 30 27 31  6 25 30 27  6 5 25 30  28 30 31 32  28 30 27 31  28 25 30 27  33 30 31 32  11 12 13 34  9 34 10 35  9 12 34 10  9 12 13 34  6 34 36 35  6 34 10 35  6 12 34 10  37 34 36 35  6 34 38 36  6 34 16 38  6 12 34 16  37 34 38 36  37 34 38 39  9 20 19 40  21 20 19 40  9 10 19 40  6 22 41 40  6 22 19 40  6 10 19 40  23 22 41 40  23 22 19 40  9 10 35 40  6 36 41 40  6 36 35 40  6 10 35 40  37 41 40 42  37 36 41 40  37 36 35 40  43 41 40 42  6 45 27 44  6 29 45 27  6 16 29 45  28 45 44 46  28 45 27 44  28 29 45 27  47 45 44 46  6 45 36 44  6 38 45 36  6 16 38 45  37 45 44 48  37 45 36 44  37 38 45 36  47 45 44 48  37 45 49 48  37 45 39 49  37 38 45 39  47 45 49 48  28 45 50 46  47 45 50 46  47 45 49 51  47 45 50 51  6 22 31 52  23 22 31 52  6 22 41 52  23 22 41 52  6 36 41 52  37 52 42 53  37 41 52 42  37 36 41 52  43 52 42 53  43 41 52 42  6 27 31 52  28 52 32 54  28 31 52 32  28 27 31 52  33 52 32 54  33 31 52 32  6 36 44 52  37 52 48 53  37 44 52 48  37 36 44 52  47 52 53 55  47 52 48 53  47 44 52 48  56 52 53 55  6 27 44 52  28 52 46 54  28 44 52 46  28 27 44 52  47 52 54 55  47 52 46 54  47 44 52 46  56 52 54 55  11 13 34 57  9 34 35 58  9 34 57 58  9 13 34 57  59 34 35 60  59 34 35 58  59 34 57 58  37 34 35 60  11 34 61 57  62 34 64 63  62 34 57 64  62 34 61 57  59 34 63 60  59 34 64 63  59 34 57 64  37 34 63 60  37 34 39 63  9 20 40 65  21 20 40 65  9 40 58 65  59 40 67 66  59 40 65 67  59 40 58 65  68 69 40 66  68 40 67 66  68 40 65 67  43 69 40 66  9 35 40 58  59 40 60 66  59 35 40 60  59 35 40 58  37 40 42 66  37 40 60 66  37 35 40 60  43 40 42 66  62 64 63 70  59 70 60 71  59 63 70 60  59 64 63 70  37 70 71 72  37 70 60 71  37 63 70 60  73 70 71 72  62 64 70 74  59 70 71 75  59 70 74 75  59 64 70 74  76 70 71 77  76 70 71 75  76 70 74 75  73 70 71 77  62 78 70 74  79 70 80 81  79 70 74 81  79 78 70 74  76 70 80 77  76 70 80 81  76 70 74 81  73 70 80 77  37 70 82 72  37 39 70 82  37 39 63 70  73 70 82 72  73 70 83 80  73 70 82 83  59 67 66 84  68 69 66 84  68 67 66 84  43 69 66 84  59 67 84 85  68 86 84 85  68 67 84 85  87 86 84 85  59 75 84 85  76 84 88 89  76 84 85 89  76 75 84 85  87 90 84 88  87 84 88 89  87 84 85 89  91 90 84 88  59 60 66 84  37 42 84 92  37 42 66 84  37 60 66 84  43 42 84 92  43 42 66 84  59 71 75 84  76 84 77 88  76 71 84 77  76 71 75 84  73 84 93 88  73 84 77 88  73 71 84 77  91 84 93 88  59 60 71 84  37 84 72 92  37 71 84 72  37 60 71 84  73 84 92 93  73 84 72 92  73 71 84 72  91 84 92 93  37 48 95 94  37 49 48 95  37 39 49 95  47 95 94 96  47 48 95 94  47 49 48 95  97 95 94 96  37 95 72 94  37 82 95 72  37 39 82 95  73 95 94 98  73 95 72 94  73 82 95 72  97 95 94 98  73 95 99 98  73 95 83 99  73 82 95 83  97 95 99 98  47 95 100 96  47 51 95 100  47 49 51 95  97 95 100 96  97 95 99 101  97 95 100 101  37 42 53 102  43 42 53 102  37 42 92 102  43 42 92 102  37 72 92 102  73 102 93 103  73 92 102 93  73 72 92 102  91 102 93 103  91 92 102 93  37 48 53 102  47 55 102 104  47 53 55 102  47 48 53 102  56 55 102 104  56 53 55 102  37 72 94 102  73 102 98 103  73 94 102 98  73 72 94 102  97 102 103 105  97 102 98 103  97 94 102 98  106 102 103 105  37 48 94 102  47 102 96 104  47 94 102 96  47 48 94 102  97 102 104 105  97 102 96 104  97 94 102 96  106 102 104 105  4 17 24 107  108 17 24 107  4 24 30 107  108 24 30 107  28 26 25 109  28 30 32 110  28 30 109 110  28 25 30 109  33 30 32 110  0 7 112 111  0 112 113 111  9 7 112 111  9 112 111 114  9 112 115 114  0 8 7 112  9 8 7 112  11 13 112 115  9 13 112 115  11 8 13 112  9 8 13 112  9 117 20 116  9 117 114 116  9 117 111 114  21 117 20 116  0 117 7 18  0 117 7 111  0 117 113 111  9 117 18 20  9 117 7 18  9 117 7 111  21 117 18 20  9 58 119 118  9 119 114 118  9 115 119 114  59 58 119 118  11 13 57 119  11 13 115 119  9 57 58 119  9 13 57 119  9 13 115 119  59 57 58 119  11 61 57 119  62 57 64 119  62 61 57 119  59 57 64 119  9 20 65 120  9 20 116 120  9 114 116 120  21 20 65 120  21 20 116 120  9 58 65 120  9 58 118 120  9 114 118 120  59 65 67 120  59 58 65 120  59 58 118 120  68 65 67 120  68 121 120 122  59 67 120 122  68 67 120 122  68 121 122 123  87 124 123 125  59 67 85 123  59 67 122 123  68 86 85 123  68 67 85 123  68 67 122 123  87 86 85 123  62 64 119 126  59 64 119 126  59 75 128 127  76 75 128 127  129 128 127 130  76 128 127 130  129 128 131 130  76 128 131 130  62 64 74 128  62 64 126 128  59 74 75 128  59 64 74 128  59 64 126 128  76 74 75 128  79 81 128 131  76 81 128 131  62 78 74 128  79 74 81 128  79 78 74 128  76 74 81 128  129 123 125 130  129 123 127 130  76 89 123 125  76 123 125 130  76 123 127 130  87 89 123 125  59 75 85 123  59 75 123 127  76 85 89 123  76 75 85 123  76 75 123 127  87 85 89 123  </DataArray>
<DataArray  type="UInt32"  Name="offsets"  format="ascii">4 8 12 16 20 24 28 32 36 40 44 48 52 56 60 64 68 72 76 80 84 88 92 96 100 104 108 112 116 120 124 128 132 136 140 144 148 152 156 160 164 168 172 176 180 184 188 192 196 200 204 208 212 216 220 224 228 232 236 240 244 248 252 256 260 264 268 272 276 280 284 288 292 296 300 304 308 312 316 320 324 328 332 336 340 344 348 352 356 360 364 368 372 376 380 384 388 392 396 400 404 408 412 416 420 424 428 432 436 440 444 448 452 456 460 464 468 472 476 480 484 488 492 496 500 504 508 512 516 520 524 528 532 536 540 544 548 552 556 560 564 568 572 576 580 584 588 592 596 600 604 608 612 616 620 624 628 632 636 640 644 648 652 656 660 664 668 672 676 680 684 688 692 696 700 704 708 712 716 720 724 728 732 736 740 744 748 752 756 760 764 768 772 776 780 784 788 792 796 800 804 808 812 816 820 824 828 832 836 840 844 848 852 856 860 864 868 872 876 880 884 888 892 896 900 904 908 912 916 920 924 928 932 936 940 944 948 952 956 960 964 968 972 976 980 984 988 992 996 1000 1004 1008 1012 1016 1020 1024 1028 1032 1036 1040 1044 1048 1052 1056 1060 1064 1068 1072 1076 1080 1084 1088 1092 1096 1100 1104 1108 1112 1116 1120 1124 1128 1132 1136 1140 1144 1148 1152 1156 1160 1164 1168 1172 1176 1180 1184 1188 1192 1196 1200 1204 1208 1212 1216 1220 1224 1228 1232 1236 1240 1244 1248 1252 1256 1260 1264 1268 1272 1276 1280 1284 1288 1292 1296 1300 1304 1308 1312 1316 1320 1324 1328 1332 1336 1340 1344 1348 1352 1356 1360 1364 1368 1372 1376 1380 1384 1388 1392 1396 1400 1404 1408 1412 1416 1420 1424 1428 1432 1436 1440 1444 1448 1452 1456 1460 1464 1468 1472 1476 1480 1484 1488 1492 1496 1500 1504 1508 1512 1516 1520 1524 1528 1532 1536 1540 1544 1548 1552 1556 1560 1564 1568 1572 1576 1580 1584 1588 1592 1596 1600 1604 1608 1612 1616 1620 1624 1628 1632 1636 1640 </DataArray>
<DataArray  type="UInt8"  Name="types"  format="ascii">10 10 10 10 10 10 10 10 10 10 10 10 10 10 10 10 10 10 10 10 10 10 10 10 10 10 10 10 10 10 10 10 10 10 10 10 10 10 10 10 10 10 10 10 10 10 10 10 10 10 10 10 10 10 10 10 10 10 10 10 10 10 10 10 10 10 10 10 10 10 10 10 10 10 10 10 10 10 10 10 10 10 10 10 10 10 10 10 10 10 10 10 10 10 10 10 10 10 10 10 10 10 10 10 10 10 10 10 10 10 10 10 10 10 10 10 10 10 10 10 10 10 10 10 10 10 10 10 10 10 10 10 10 10 10 10 10 10 10 10 10 10 10 10 10 10 10 10 10 10 10 10 10 10 10 10 10 10 10 10 10 10 10 10 10 10 10 10 10 10 10 10 10 10 10 10 10 10 10 10 10 10 10 10 10 10 10 10 10 10 10 10 10 10 10 10 10 10 10 10 10 10 10 10 10 10 10 10 10 10 10 10 10 10 10 10 10 10 10 10 10 10 10 10 10 10 10 10 10 10 10 10 10 10 10 10 10 10 10 10 10 10 10 10 10 10 10 10 10 10 10 10 10 10 10 10 10 10 10 10 10 10 10 10 10 10 10 10 10 10 10 10 10 10 10 10 10 10 10 10 10 10 10 10 10 10 10 10 10 10 10 10 10 10 10 10 10 10 10 10 10 10 10 10 10 10 10 10 10 10 10 10 10 10 10 10 10 10 10 10 10 10 10 10 10 10 10 10 10 10 10 10 10 10 10 10 10 10 10 10 10 10 10 10 10 10 10 10 10 10 10 10 10 10 10 10 10 10 10 10 10 10 10 10 10 10 10 10 10 10 10 10 10 10 10 10 10 10 10 10 10 10 10 10 10 10 10 10 10 10 10 10 10 10 10 10 10 10 10 10 10 10 10 10 10 10 10 10 10 10 </DataArray>
</Cells>
<PointData  Scalars="p"> 
<DataArray  type="Float64"  Name="p"  format="ascii">9.1999999999911193e+00  9.1999999999909701e+00  9.1999999999910340e+00  9.3999999999901771e+00  9.1999999999911140e+00  9.1999999999910358e+00  9.1999999999911033e+00  9.1999999999910180e+00  9.3999999999901949e+00  9.1999999999910820e+00  9.1999999999910198e+00  9.5999999999897785e+00  9.3999999999902020e+00  9.3999999999902375e+00  9.3999999999901913e+00  9.3999999999902712e+00  9.3999999999902517e+00  8.9999999999919282e+00  8.9999999999919389e+00  8.9999999999919247e+00  8.9999999999919904e+00  8.7999999999932825e+00  8.9999999999919904e+00  8.7999999999933003e+00  8.9999999999919549e+00  9.1999999999909683e+00  9.3999999999901522e+00  9.1999999999910091e+00  9.1999999999910980e+00  9.3999999999901807e+00  8.9999999999919282e+00  8.9999999999919282e+00  8.9999999999919869e+00  8.7999999999932879e+00  9.3999999999901505e+00  9.1999999999909345e+00  9.1999999999910056e+00  9.1999999999910678e+00  9.3999999999901718e+00  9.3999999999902304e+00  8.9999999999919069e+00  8.9999999999919300e+00  8.9999999999919744e+00  8.7999999999932754e+00  9.1999999999909292e+00  9.3999999999901451e+00  9.1999999999909949e+00  9.1999999999910731e+00  9.1999999999909843e+00  9.3999999999901540e+00  9.3999999999901558e+00  9.3999999999902109e+00  8.9999999999919034e+00  8.9999999999919034e+00  8.9999999999919122e+00  8.9999999999919655e+00  8.7999999999932541e+00  9.3999999999901629e+00  9.1999999999909932e+00  9.1999999999910855e+00  9.1999999999909932e+00  9.5999999999896772e+00  9.5999999999897572e+00  9.3999999999901647e+00  9.3999999999902268e+00  8.9999999999919122e+00  8.9999999999918874e+00  8.9999999999919726e+00  8.7999999999932648e+00  8.7999999999931831e+00  9.3999999999901362e+00  9.1999999999909257e+00  9.1999999999909825e+00  9.1999999999910571e+00  9.3999999999901451e+00  9.1999999999909843e+00  9.1999999999910518e+00  9.1999999999909754e+00  9.5999999999896648e+00  9.5999999999897376e+00  9.3999999999901469e+00  9.3999999999902037e+00  9.3999999999901522e+00  9.3999999999902002e+00  8.9999999999918856e+00  8.9999999999919087e+00  8.7999999999931884e+00  8.7999999999932577e+00  8.9999999999918945e+00  8.9999999999919602e+00  8.7999999999931706e+00  8.7999999999932470e+00  8.9999999999918998e+00  8.9999999999919496e+00  9.1999999999909026e+00  9.3999999999901167e+00  9.1999999999909665e+00  9.1999999999910429e+00  9.1999999999909594e+00  9.3999999999901256e+00  9.3999999999901309e+00  9.3999999999901771e+00  8.9999999999918803e+00  8.9999999999918945e+00  8.9999999999918927e+00  8.9999999999919407e+00  8.7999999999932470e+00  8.9999999999920028e+00  8.7999999999933110e+00  9.1999999999910145e+00  8.9999999999919265e+00  9.1999999999909470e+00  9.3999999999901434e+00  9.1999999999910127e+00  9.1999999999909949e+00  9.3999999999901629e+00  8.9999999999919229e+00  8.9999999999919353e+00  9.1999999999909345e+00  9.3999999999901522e+00  8.9999999999919016e+00  8.7999999999931919e+00  8.9999999999919122e+00  8.9999999999918838e+00  8.7999999999931795e+00  8.9999999999918856e+00  9.3999999999901434e+00  9.1999999999909114e+00  9.3999999999901114e+00  9.1999999999910482e+00  9.1999999999909470e+00  9.3999999999901149e+00  </DataArray> 
</PointData> 
</Piece>
</UnstructuredGrid>
</VTKFile>