<?xml version="1.0"?>
<VTKFile type="UnstructuredGrid"  version="0.1"  >
<UnstructuredGrid>
<Piece  NumberOfPoints="122" NumberOfCells="385">
<Points>
<DataArray  type="Float64"  NumberOfComponents="3"  format="ascii">10 40 20  10 40 25  10 35 25  5 35 25  10 40 30  10 30 30  10 35 30  0 30 30  5 35 30  5 30 30  5 40 25  0 35 30  0 35 25  0 40 30  5 40 30  0 40 20  0 40 25  15 40 25  15 40 20  15 35 25  15 35 30  15 40 30  10 45 25  5 45 25  10 45 30  10 50 30  5 45 30  0 45 25  0 45 30  0 50 30  5 50 30  15 45 25  15 45 30  15 50 30  20 50 30  5 35 35  10 35 35  10 40 35  10 40 40  5 40 35  15 35 35  15 40 35  15 40 40  5 45 35  10 45 35  10 50 35  10 50 40  10 45 40  5 50 35  15 45 35  15 45 40  15 50 35  15 50 40  5 30 35  10 30 35  10 30 40  10 35 40  0 30 35  0 30 40  5 35 40  5 30 40  0 35 35  0 35 40  0 40 40  5 40 40  0 40 35  15 35 40  5 45 40  0 45 35  0 45 40  0 50 40  5 50 40  0 50 35  5 35 45  10 35 45  10 40 45  10 40 50  5 30 45  10 30 45  10 30 50  10 35 50  0 30 45  0 30 50  5 35 50  5 30 50  5 40 45  0 35 45  0 35 50  0 40 50  5 40 50  0 40 45  15 35 45  15 40 45  15 35 50  15 40 50  5 45 45  10 45 45  10 50 45  10 50 50  10 45 50  5 45 50  5 50 45  0 45 45  0 45 50  0 50 50  5 50 50  0 50 45  15 45 45  15 45 50  15 50 45  15 50 50  10 50 20  10 50 25  5 50 25  0 45 20  0 50 20  0 50 25  20 50 25  15 50 25  5 25 35  5 25 40  5 25 45  </DataArray>
</Points>
<Cells>
<DataArray  type="UInt32"  Name="connectivity"  format="ascii">0 3 2 1  4 3 2 1  5 3 2 6  4 3 2 6  7 3 9 8  5 3 6 8  5 3 9 8  4 3 6 8  0 3 1 10  4 3 1 10  7 3 8 11  7 3 12 11  13 3 8 14  13 3 8 11  13 3 12 11  4 3 8 14  15 3 10 16  15 3 12 16  13 3 10 14  13 3 10 16  13 3 12 16  4 3 10 14  0 19 18 17  5 19 6 20  5 2 19 6  4 19 20 21  4 19 6 20  4 2 19 6  0 19 1 17  0 2 19 1  4 19 17 21  4 19 1 17  4 2 19 1  0 1 22 23  0 1 10 23  4 22 24 23  4 1 22 23  4 1 10 23  25 22 24 23  15 10 16 23  13 14 23 26  13 10 14 23  13 10 16 23  4 24 23 26  4 14 23 26  4 10 14 23  25 24 23 26  15 16 23 27  13 23 26 28  13 23 27 28  13 16 23 27  29 23 26 30  29 23 26 28  29 23 27 28  25 23 26 30  0 18 17 31  0 1 17 31  4 31 21 32  4 17 31 21  4 1 17 31  0 1 22 31  4 31 24 32  4 22 31 24  4 1 22 31  25 31 32 33  25 31 24 32  25 22 31 24  34 31 32 33  7 9 8 35  5 6 36 35  5 6 8 35  5 9 8 35  4 36 35 37  4 6 36 35  4 6 8 35  38 36 35 37  7 8 11 35  13 35 14 39  13 8 35 14  13 8 11 35  4 35 37 39  4 35 14 39  4 8 35 14  38 35 37 39  5 6 20 40  4 40 21 41  4 20 40 21  4 6 20 40  5 6 36 40  4 40 37 41  4 36 40 37  4 6 36 40  38 40 41 42  38 40 37 41  38 36 40 37  13 14 26 43  4 24 44 43  4 24 26 43  4 14 26 43  25 44 43 45  25 24 44 43  25 24 26 43  46 44 43 45  13 14 39 43  4 37 44 43  4 37 39 43  4 14 39 43  38 44 43 47  38 37 44 43  38 37 39 43  46 44 43 47  13 26 28 43  29 43 30 48  29 26 43 30  29 26 28 43  25 43 45 48  25 43 30 48  25 26 43 30  46 43 45 48  4 21 32 49  4 21 41 49  4 37 41 49  38 49 42 50  38 41 49 42  38 37 41 49  4 24 32 49  25 49 33 51  25 32 49 33  25 24 32 49  34 49 33 51  34 32 49 33  4 37 44 49  38 49 47 50  38 44 49 47  38 37 44 49  46 49 50 52  46 49 47 50  46 44 49 47  4 24 44 49  25 49 45 51  25 44 49 45  25 24 44 49  46 49 51 52  46 49 45 51  46 44 49 45  7 9 35 53  5 36 35 54  5 35 53 54  5 9 35 53  55 36 35 56  55 36 35 54  55 35 53 54  38 36 35 56  7 35 53 57  58 35 60 59  58 35 53 60  58 35 53 57  55 35 56 59  55 35 60 59  55 35 53 60  38 35 56 59  7 35 57 61  58 35 59 62  58 35 61 62  58 35 57 61  63 35 59 64  63 35 59 62  63 35 61 62  38 35 59 64  7 11 35 61  13 35 39 65  13 35 61 65  13 11 35 61  63 35 39 64  63 35 39 65  63 35 61 65  38 35 39 64  5 36 40 54  55 40 56 66  55 36 40 56  55 36 40 54  38 40 42 66  38 40 56 66  38 36 40 56  13 39 43 65  63 43 64 67  63 39 43 64  63 39 43 65  38 43 47 67  38 43 64 67  38 39 43 64  46 43 47 67  13 43 65 68  63 43 67 69  63 43 69 68  63 43 65 68  70 43 67 71  70 43 67 69  70 43 69 68  46 43 67 71  13 28 43 68  29 43 48 72  29 43 68 72  29 28 43 68  70 43 48 71  70 43 48 72  70 43 68 72  46 43 48 71  58 60 59 73  55 56 74 73  55 56 59 73  55 60 59 73  38 74 75 73  38 56 74 73  38 56 59 73  76 74 75 73  58 60 73 77  55 74 78 73  55 78 73 77  55 60 73 77  79 74 73 80  79 74 78 73  79 78 73 77  76 74 73 80  58 73 77 81  82 73 83 84  82 73 77 84  82 73 77 81  79 73 80 83  79 73 83 84  79 73 77 84  76 73 80 83  58 59 62 73  63 64 73 85  63 59 64 73  63 59 62 73  38 75 73 85  38 64 73 85  38 59 64 73  76 75 73 85  58 73 81 86  82 73 83 87  82 73 86 87  82 73 81 86  88 73 83 89  88 73 83 87  88 73 86 87  76 73 83 89  58 62 73 86  63 73 85 90  63 73 86 90  63 62 73 86  88 73 85 89  88 73 85 90  88 73 86 90  76 73 85 89  55 56 66 91  38 42 91 92  38 42 66 91  38 56 66 91  55 74 78 91  79 91 80 93  79 74 91 80  79 74 78 91  76 91 94 93  76 91 80 93  76 74 91 80  55 56 74 91  38 91 75 92  38 74 91 75  38 56 74 91  76 91 92 94  76 91 75 92  76 74 91 75  63 64 67 95  38 47 96 95  38 47 67 95  38 64 67 95  46 96 95 97  46 47 96 95  46 47 67 95  98 96 95 97  63 64 85 95  38 75 96 95  38 75 85 95  38 64 85 95  76 96 95 99  76 75 96 95  76 75 85 95  98 96 95 99  63 85 90 95  88 95 89 100  88 85 95 89  88 85 90 95  76 95 99 100  76 95 89 100  76 85 95 89  98 95 99 100  63 67 69 95  70 95 71 101  70 67 95 71  70 67 69 95  46 95 97 101  46 95 71 101  46 67 95 71  98 95 97 101  63 90 95 102  88 95 100 103  88 95 102 103  88 90 95 102  104 95 100 105  104 95 100 103  104 95 102 103  98 95 100 105  63 69 95 102  70 95 101 106  70 95 102 106  70 69 95 102  104 95 101 105  104 95 101 106  104 95 102 106  98 95 101 105  38 42 50 107  38 42 92 107  38 75 92 107  76 107 94 108  76 92 107 94  76 75 92 107  38 47 50 107  46 52 107 109  46 50 52 107  46 47 50 107  38 75 96 107  76 107 99 108  76 96 107 99  76 75 96 107  98 107 108 110  98 107 99 108  98 96 107 99  38 47 96 107  46 107 97 109  46 96 107 97  46 47 96 107  98 107 109 110  98 107 97 109  98 96 107 97  111 22 23 112  25 22 23 112  111 23 112 113  25 23 112 113  15 23 27 114  115 23 113 116  115 23 27 116  115 23 27 114  29 23 30 113  29 23 113 116  29 23 27 116  25 23 30 113  34 31 118 117  111 31 112 118  111 22 31 112  25 31 33 118  25 31 112 118  25 22 31 112  34 31 33 118  7 9 53 119  5 53 54 119  5 9 53 119  55 53 54 119  7 53 57 119  58 53 60 119  58 53 57 119  55 53 60 119  58 60 119 120  55 60 119 120  58 60 77 121  58 60 120 121  55 78 77 121  55 60 77 121  55 60 120 121  79 78 77 121  58 77 81 121  82 77 84 121  82 77 81 121  79 77 84 121  </DataArray>
<DataArray  type="UInt32"  Name="offsets"  format="ascii">4 8 12 16 20 24 28 32 36 40 44 48 52 56 60 64 68 72 76 80 84 88 92 96 100 104 108 112 116 120 124 128 132 136 140 144 148 152 156 160 164 168 172 176 180 184 188 192 196 200 204 208 212 216 220 224 228 232 236 240 244 248 252 256 260 264 268 272 276 280 284 288 292 296 300 304 308 312 316 320 324 328 332 336 340 344 348 352 356 360 364 368 372 376 380 384 388 392 396 400 404 408 412 416 420 424 428 432 436 440 444 448 452 456 460 464 468 472 476 480 484 488 492 496 500 504 508 512 516 520 524 528 532 536 540 544 548 552 556 560 564 568 572 576 580 584 588 592 596 600 604 608 612 616 620 624 628 632 636 640 644 648 652 656 660 664 668 672 676 680 684 688 692 696 700 704 708 712 716 720 724 728 732 736 740 744 748 752 756 760 764 768 772 776 780 784 788 792 796 800 804 808 812 816 820 824 828 832 836 840 844 848 852 856 860 864 868 872 876 880 884 888 892 896 900 904 908 912 916 920 924 928 932 936 940 944 948 952 956 960 964 968 972 976 980 984 988 992 996 1000 1004 1008 1012 1016 1020 1024 1028 1032 1036 1040 1044 1048 1052 1056 1060 1064 1068 1072 1076 1080 1084 1088 1092 1096 1100 1104 1108 1112 1116 1120 1124 1128 1132 1136 1140 1144 1148 1152 1156 1160 1164 1168 1172 1176 1180 1184 1188 1192 1196 1200 1204 1208 1212 1216 1220 1224 1228 1232 1236 1240 1244 1248 1252 1256 1260 1264 1268 1272 1276 1280 1284 1288 1292 1296 1300 1304 1308 1312 1316 1320 1324 1328 1332 1336 1340 1344 1348 1352 1356 1360 1364 1368 1372 1376 1380 1384 1388 1392 1396 1400 1404 1408 1412 1416 1420 1424 1428 1432 1436 1440 1444 1448 1452 1456 1460 1464 1468 1472 1476 1480 1484 1488 1492 1496 1500 1504 1508 1512 1516 1520 1524 1528 1532 1536 1540 </DataArray>
<DataArray  type="UInt8"  Name="types"  format="ascii">10 10 10 10 10 10 10 10 10 10 10 10 10 10 10 10 10 10 10 10 10 10 10 10 10 10 10 10 10 10 10 10 10 10 10 10 10 10 10 10 10 10 10 10 10 10 10 10 10 10 10 10 10 10 10 10 10 10 10 10 10 10 10 10 10 10 10 10 10 10 10 10 10 10 10 10 10 10 10 10 10 10 10 10 10 10 10 10 10 10 10 10 10 10 10 10 10 10 10 10 10 10 10 10 10 10 10 10 10 10 10 10 10 10 10 10 10 10 10 10 10 10 10 10 10 10 10 10 10 10 10 10 10 10 10 10 10 10 10 10 10 10 10 10 10 10 10 10 10 10 10 10 10 10 10 10 10 10 10 10 10 10 10 10 10 10 10 10 10 10 10 10 10 10 10 10 10 10 10 10 10 10 10 10 10 10 10 10 10 10 10 10 10 10 10 10 10 10 10 10 10 10 10 10 10 10 10 10 10 10 10 10 10 10 10 10 10 10 10 10 10 10 10 10 10 10 10 10 10 10 10 10 10 10 10 10 10 10 10 10 10 10 10 10 10 10 10 10 10 10 10 10 10 10 10 10 10 10 10 10 10 10 10 10 10 10 10 10 10 10 10 10 10 10 10 10 10 10 10 10 10 10 10 10 10 10 10 10 10 10 10 10 10 10 10 10 10 10 10 10 10 10 10 10 10 10 10 10 10 10 10 10 10 10 10 10 10 10 10 10 10 10 10 10 10 10 10 10 10 10 10 10 10 10 10 10 10 10 10 10 10 10 10 10 10 10 10 10 10 10 10 10 10 10 10 10 10 10 10 10 10 10 10 10 10 10 10 10 10 10 10 10 10 10 10 10 10 10 10 10 10 10 10 10 10 </DataArray>
</Cells>
<PointData  Scalars="p"> 
<DataArray  type="Float64"  Name="p"  format="ascii">9.5999999999897696e+00  9.5999999999896861e+00  9.5999999999896382e+00  9.7999999999892733e+00  9.5999999999897767e+00  9.5999999999897785e+00  9.5999999999896950e+00  9.9999999999893117e+00  9.7999999999892804e+00  9.7999999999893674e+00  9.7999999999892822e+00  9.9999999999892211e+00  9.9999999999891624e+00  9.9999999999893081e+00  9.7999999999893443e+00  9.9999999999893170e+00  9.9999999999892193e+00  9.3999999999901913e+00  9.3999999999902712e+00  9.3999999999901771e+00  9.3999999999902020e+00  9.3999999999902517e+00  9.5999999999896346e+00  9.7999999999892413e+00  9.5999999999896843e+00  9.5999999999897536e+00  9.7999999999892591e+00  9.9999999999891340e+00  9.9999999999892015e+00  9.9999999999892975e+00  9.7999999999893053e+00  9.3999999999901522e+00  9.3999999999901807e+00  9.3999999999902286e+00  9.1999999999910980e+00  9.7999999999892609e+00  9.5999999999896417e+00  9.5999999999896932e+00  9.5999999999897554e+00  9.7999999999892626e+00  9.3999999999901505e+00  9.3999999999901718e+00  9.3999999999902304e+00  9.7999999999892307e+00  9.5999999999896097e+00  9.5999999999896595e+00  9.5999999999897394e+00  9.5999999999896630e+00  9.7999999999892307e+00  9.3999999999901451e+00  9.3999999999901540e+00  9.3999999999901558e+00  9.3999999999902109e+00  9.7999999999892680e+00  9.5999999999896772e+00  9.5999999999897572e+00  9.5999999999896861e+00  9.9999999999892086e+00  9.9999999999892939e+00  9.7999999999892662e+00  9.7999999999893159e+00  9.9999999999891447e+00  9.9999999999892157e+00  9.9999999999892832e+00  9.7999999999893177e+00  9.9999999999892051e+00  9.3999999999901647e+00  9.7999999999892378e+00  9.9999999999891056e+00  9.9999999999891749e+00  9.9999999999892619e+00  9.7999999999892893e+00  9.9999999999891767e+00  9.7999999999892449e+00  9.5999999999896097e+00  9.5999999999896577e+00  9.5999999999897359e+00  9.7999999999892413e+00  9.5999999999896648e+00  9.5999999999897376e+00  9.5999999999896488e+00  9.9999999999891749e+00  9.9999999999892655e+00  9.7999999999892342e+00  9.7999999999892946e+00  9.7999999999892360e+00  9.9999999999891198e+00  9.9999999999891784e+00  9.9999999999892584e+00  9.7999999999892964e+00  9.9999999999891749e+00  9.3999999999901362e+00  9.3999999999901522e+00  9.3999999999901469e+00  9.3999999999902002e+00  9.7999999999892129e+00  9.5999999999895849e+00  9.5999999999896346e+00  9.5999999999897110e+00  9.5999999999896293e+00  9.7999999999892164e+00  9.7999999999892164e+00  9.9999999999891021e+00  9.9999999999891571e+00  9.9999999999892513e+00  9.7999999999892822e+00  9.9999999999891642e+00  9.3999999999901167e+00  9.3999999999901256e+00  9.3999999999901309e+00  9.3999999999901771e+00  9.5999999999897447e+00  9.5999999999896790e+00  9.7999999999892449e+00  9.9999999999891838e+00  9.9999999999892655e+00  9.9999999999891926e+00  9.1999999999910145e+00  9.3999999999901611e+00  9.7999999999892236e+00  9.7999999999892289e+00  9.7999999999891951e+00  </DataArray> 
</PointData> 
</Piece>
</UnstructuredGrid>
</VTKFile>