<?xml version="1.0"?>
<VTKFile type="UnstructuredGrid"  version="0.1"  >
<UnstructuredGrid>
<Piece  NumberOfPoints="1331" NumberOfCells="6000">
<Points>
<DataArray  type="Float64"  NumberOfComponents="3"  format="ascii">0 0 0  10 0 0  20 0 0  30 0 0  40 0 0  50 0 0  0 10 0  10 10 0  20 10 0  30 10 0  40 10 0  50 10 0  0 20 0  10 20 0  20 20 0  30 20 0  40 20 0  50 20 0  0 30 0  10 30 0  20 30 0  30 30 0  40 30 0  50 30 0  0 40 0  10 40 0  20 40 0  30 40 0  40 40 0  50 40 0  0 50 0  10 50 0  20 50 0  30 50 0  40 50 0  50 50 0  0 0 10  10 0 10  20 0 10  30 0 10  40 0 10  50 0 10  0 10 10  10 10 10  20 10 10  30 10 10  40 10 10  50 10 10  0 20 10  10 20 10  20 20 10  30 20 10  40 20 10  50 20 10  0 30 10  10 30 10  20 30 10  30 30 10  40 30 10  50 30 10  0 40 10  10 40 10  20 40 10  30 40 10  40 40 10  50 40 10  0 50 10  10 50 10  20 50 10  30 50 10  40 50 10  50 50 10  0 0 20  10 0 20  20 0 20  30 0 20  40 0 20  50 0 20  0 10 20  10 10 20  20 10 20  30 10 20  40 10 20  50 10 20  0 20 20  10 20 20  20 20 20  30 20 20  40 20 20  50 20 20  0 30 20  10 30 20  20 30 20  30 30 20  40 30 20  50 30 20  0 40 20  10 40 20  20 40 20  30 40 20  40 40 20  50 40 20  0 50 20  10 50 20  20 50 20  30 50 20  40 50 20  50 50 20  0 0 30  10 0 30  20 0 30  30 0 30  40 0 30  50 0 30  0 10 30  10 10 30  20 10 30  30 10 30  40 10 30  50 10 30  0 20 30  10 20 30  20 20 30  30 20 30  40 20 30  50 20 30  0 30 30  10 30 30  20 30 30  30 30 30  40 30 30  50 30 30  0 40 30  10 40 30  20 40 30  30 40 30  40 40 30  50 40 30  0 50 30  10 50 30  20 50 30  30 50 30  40 50 30  50 50 30  0 0 40  10 0 40  20 0 40  30 0 40  40 0 40  50 0 40  0 10 40  10 10 40  20 10 40  30 10 40  40 10 40  50 10 40  0 20 40  10 20 40  20 20 40  30 20 40  40 20 40  50 20 40  0 30 40  10 30 40  20 30 40  30 30 40  40 30 40  50 30 40  0 40 40  10 40 40  20 40 40  30 40 40  40 40 40  50 40 40  0 50 40  10 50 40  20 50 40  30 50 40  40 50 40  50 50 40  0 0 50  10 0 50  20 0 50  30 0 50  40 0 50  50 0 50  0 10 50  10 10 50  20 10 50  30 10 50  40 10 50  50 10 50  0 20 50  10 20 50  20 20 50  30 20 50  40 20 50  50 20 50  0 30 50  10 30 50  20 30 50  30 30 50  40 30 50  50 30 50  0 40 50  10 40 50  20 40 50  30 40 50  40 40 50  50 40 50  0 50 50  10 50 50  20 50 50  30 50 50  40 50 50  50 50 50  5 0 0  0 5 0  5 5 0  0 0 5  5 0 5  0 5 5  5 5 5  15 0 0  10 5 0  15 5 0  10 0 5  15 0 5  10 5 5  15 5 5  25 0 0  20 5 0  25 5 0  20 0 5  25 0 5  20 5 5  25 5 5  35 0 0  30 5 0  35 5 0  30 0 5  35 0 5  30 5 5  35 5 5  45 0 0  40 5 0  45 5 0  40 0 5  45 0 5  40 5 5  45 5 5  50 5 0  50 0 5  50 5 5  5 10 0  0 15 0  5 15 0  0 10 5  5 10 5  0 15 5  5 15 5  15 10 0  10 15 0  15 15 0  10 10 5  15 10 5  10 15 5  15 15 5  25 10 0  20 15 0  25 15 0  20 10 5  25 10 5  20 15 5  25 15 5  35 10 0  30 15 0  35 15 0  30 10 5  35 10 5  30 15 5  35 15 5  45 10 0  40 15 0  45 15 0  40 10 5  45 10 5  40 15 5  45 15 5  50 15 0  50 10 5  50 15 5  5 20 0  0 25 0  5 25 0  0 20 5  5 20 5  0 25 5  5 25 5  15 20 0  10 25 0  15 25 0  10 20 5  15 20 5  10 25 5  15 25 5  25 20 0  20 25 0  25 25 0  20 20 5  25 20 5  20 25 5  25 25 5  35 20 0  30 25 0  35 25 0  30 20 5  35 20 5  30 25 5  35 25 5  45 20 0  40 25 0  45 25 0  40 20 5  45 20 5  40 25 5  45 25 5  50 25 0  50 20 5  50 25 5  5 30 0  0 35 0  5 35 0  0 30 5  5 30 5  0 35 5  5 35 5  15 30 0  10 35 0  15 35 0  10 30 5  15 30 5  10 35 5  15 35 5  25 30 0  20 35 0  25 35 0  20 30 5  25 30 5  20 35 5  25 35 5  35 30 0  30 35 0  35 35 0  30 30 5  35 30 5  30 35 5  35 35 5  45 30 0  40 35 0  45 35 0  40 30 5  45 30 5  40 35 5  45 35 5  50 35 0  50 30 5  50 35 5  5 40 0  0 45 0  5 45 0  0 40 5  5 40 5  0 45 5  5 45 5  15 40 0  10 45 0  15 45 0  10 40 5  15 40 5  10 45 5  15 45 5  25 40 0  20 45 0  25 45 0  20 40 5  25 40 5  20 45 5  25 45 5  35 40 0  30 45 0  35 45 0  30 40 5  35 40 5  30 45 5  35 45 5  45 40 0  40 45 0  45 45 0  40 40 5  45 40 5  40 45 5  45 45 5  50 45 0  50 40 5  50 45 5  5 50 0  0 50 5  5 50 5  15 50 0  10 50 5  15 50 5  25 50 0  20 50 5  25 50 5  35 50 0  30 50 5  35 50 5  45 50 0  40 50 5  45 50 5  50 50 5  5 0 10  0 5 10  5 5 10  0 0 15  5 0 15  0 5 15  5 5 15  15 0 10  10 5 10  15 5 10  10 0 15  15 0 15  10 5 15  15 5 15  25 0 10  20 5 10  25 5 10  20 0 15  25 0 15  20 5 15  25 5 15  35 0 10  30 5 10  35 5 10  30 0 15  35 0 15  30 5 15  35 5 15  45 0 10  40 5 10  45 5 10  40 0 15  45 0 15  40 5 15  45 5 15  50 5 10  50 0 15  50 5 15  5 10 10  0 15 10  5 15 10  0 10 15  5 10 15  0 15 15  5 15 15  15 10 10  10 15 10  15 15 10  10 10 15  15 10 15  10 15 15  15 15 15  25 10 10  20 15 10  25 15 10  20 10 15  25 10 15  20 15 15  25 15 15  35 10 10  30 15 10  35 15 10  30 10 15  35 10 15  30 15 15  35 15 15  45 10 10  40 15 10  45 15 10  40 10 15  45 10 15  40 15 15  45 15 15  50 15 10  50 10 15  50 15 15  5 20 10  0 25 10  5 25 10  0 20 15  5 20 15  0 25 15  5 25 15  15 20 10  10 25 10  15 25 10  10 20 15  15 20 15  10 25 15  15 25 15  25 20 10  20 25 10  25 25 10  20 20 15  25 20 15  20 25 15  25 25 15  35 20 10  30 25 10  35 25 10  30 20 15  35 20 15  30 25 15  35 25 15  45 20 10  40 25 10  45 25 10  40 20 15  45 20 15  40 25 15  45 25 15  50 25 10  50 20 15  50 25 15  5 30 10  0 35 10  5 35 10  0 30 15  5 30 15  0 35 15  5 35 15  15 30 10  10 35 10  15 35 10  10 30 15  15 30 15  10 35 15  15 35 15  25 30 10  20 35 10  25 35 10  20 30 15  25 30 15  20 35 15  25 35 15  35 30 10  30 35 10  35 35 10  30 30 15  35 30 15  30 35 15  35 35 15  45 30 10  40 35 10  45 35 10  40 30 15  45 30 15  40 35 15  45 35 15  50 35 10  50 30 15  50 35 15  5 40 10  0 45 10  5 45 10  0 40 15  5 40 15  0 45 15  5 45 15  15 40 10  10 45 10  15 45 10  10 40 15  15 40 15  10 45 15  15 45 15  25 40 10  20 45 10  25 45 10  20 40 15  25 40 15  20 45 15  25 45 15  35 40 10  30 45 10  35 45 10  30 40 15  35 40 15  30 45 15  35 45 15  45 40 10  40 45 10  45 45 10  40 40 15  45 40 15  40 45 15  45 45 15  50 45 10  50 40 15  50 45 15  5 50 10  0 50 15  5 50 15  15 50 10  10 50 15  15 50 15  25 50 10  20 50 15  25 50 15  35 50 10  30 50 15  35 50 15  45 50 10  40 50 15  45 50 15  50 50 15  5 0 20  0 5 20  5 5 20  0 0 25  5 0 25  0 5 25  5 5 25  15 0 20  10 5 20  15 5 20  10 0 25  15 0 25  10 5 25  15 5 25  25 0 20  20 5 20  25 5 20  20 0 25  25 0 25  20 5 25  25 5 25  35 0 20  30 5 20  35 5 20  30 0 25  35 0 25  30 5 25  35 5 25  45 0 20  40 5 20  45 5 20  40 0 25  45 0 25  40 5 25  45 5 25  50 5 20  50 0 25  50 5 25  5 10 20  0 15 20  5 15 20  0 10 25  5 10 25  0 15 25  5 15 25  15 10 20  10 15 20  15 15 20  10 10 25  15 10 25  10 15 25  15 15 25  25 10 20  20 15 20  25 15 20  20 10 25  25 10 25  20 15 25  25 15 25  35 10 20  30 15 20  35 15 20  30 10 25  35 10 25  30 15 25  35 15 25  45 10 20  40 15 20  45 15 20  40 10 25  45 10 25  40 15 25  45 15 25  50 15 20  50 10 25  50 15 25  5 20 20  0 25 20  5 25 20  0 20 25  5 20 25  0 25 25  5 25 25  15 20 20  10 25 20  15 25 20  10 20 25  15 20 25  10 25 25  15 25 25  25 20 20  20 25 20  25 25 20  20 20 25  25 20 25  20 25 25  25 25 25  35 20 20  30 25 20  35 25 20  30 20 25  35 20 25  30 25 25  35 25 25  45 20 20  40 25 20  45 25 20  40 20 25  45 20 25  40 25 25  45 25 25  50 25 20  50 20 25  50 25 25  5 30 20  0 35 20  5 35 20  0 30 25  5 30 25  0 35 25  5 35 25  15 30 20  10 35 20  15 35 20  10 30 25  15 30 25  10 35 25  15 35 25  25 30 20  20 35 20  25 35 20  20 30 25  25 30 25  20 35 25  25 35 25  35 30 20  30 35 20  35 35 20  30 30 25  35 30 25  30 35 25  35 35 25  45 30 20  40 35 20  45 35 20  40 30 25  45 30 25  40 35 25  45 35 25  50 35 20  50 30 25  50 35 25  5 40 20  0 45 20  5 45 20  0 40 25  5 40 25  0 45 25  5 45 25  15 40 20  10 45 20  15 45 20  10 40 25  15 40 25  10 45 25  15 45 25  25 40 20  20 45 20  25 45 20  20 40 25  25 40 25  20 45 25  25 45 25  35 40 20  30 45 20  35 45 20  30 40 25  35 40 25  30 45 25  35 45 25  45 40 20  40 45 20  45 45 20  40 40 25  45 40 25  40 45 25  45 45 25  50 45 20  50 40 25  50 45 25  5 50 20  0 50 25  5 50 25  15 50 20  10 50 25  15 50 25  25 50 20  20 50 25  25 50 25  35 50 20  30 50 25  35 50 25  45 50 20  40 50 25  45 50 25  50 50 25  5 0 30  0 5 30  5 5 30  0 0 35  5 0 35  0 5 35  5 5 35  15 0 30  10 5 30  15 5 30  10 0 35  15 0 35  10 5 35  15 5 35  25 0 30  20 5 30  25 5 30  20 0 35  25 0 35  20 5 35  25 5 35  35 0 30  30 5 30  35 5 30  30 0 35  35 0 35  30 5 35  35 5 35  45 0 30  40 5 30  45 5 30  40 0 35  45 0 35  40 5 35  45 5 35  50 5 30  50 0 35  50 5 35  5 10 30  0 15 30  5 15 30  0 10 35  5 10 35  0 15 35  5 15 35  15 10 30  10 15 30  15 15 30  10 10 35  15 10 35  10 15 35  15 15 35  25 10 30  20 15 30  25 15 30  20 10 35  25 10 35  20 15 35  25 15 35  35 10 30  30 15 30  35 15 30  30 10 35  35 10 35  30 15 35  35 15 35  45 10 30  40 15 30  45 15 30  40 10 35  45 10 35  40 15 35  45 15 35  50 15 30  50 10 35  50 15 35  5 20 30  0 25 30  5 25 30  0 20 35  5 20 35  0 25 35  5 25 35  15 20 30  10 25 30  15 25 30  10 20 35  15 20 35  10 25 35  15 25 35  25 20 30  20 25 30  25 25 30  20 20 35  25 20 35  20 25 35  25 25 35  35 20 30  30 25 30  35 25 30  30 20 35  35 20 35  30 25 35  35 25 35  45 20 30  40 25 30  45 25 30  40 20 35  45 20 35  40 25 35  45 25 35  50 25 30  50 20 35  50 25 35  5 30 30  0 35 30  5 35 30  0 30 35  5 30 35  0 35 35  5 35 35  15 30 30  10 35 30  15 35 30  10 30 35  15 30 35  10 35 35  15 35 35  25 30 30  20 35 30  25 35 30  20 30 35  25 30 35  20 35 35  25 35 35  35 30 30  30 35 30  35 35 30  30 30 35  35 30 35  30 35 35  35 35 35  45 30 30  40 35 30  45 35 30  40 30 35  45 30 35  40 35 35  45 35 35  50 35 30  50 30 35  50 35 35  5 40 30  0 45 30  5 45 30  0 40 35  5 40 35  0 45 35  5 45 35  15 40 30  10 45 30  15 45 30  10 40 35  15 40 35  10 45 35  15 45 35  25 40 30  20 45 30  25 45 30  20 40 35  25 40 35  20 45 35  25 45 35  35 40 30  30 45 30  35 45 30  30 40 35  35 40 35  30 45 35  35 45 35  45 40 30  40 45 30  45 45 30  40 40 35  45 40 35  40 45 35  45 45 35  50 45 30  50 40 35  50 45 35  5 50 30  0 50 35  5 50 35  15 50 30  10 50 35  15 50 35  25 50 30  20 50 35  25 50 35  35 50 30  30 50 35  35 50 35  45 50 30  40 50 35  45 50 35  50 50 35
[...]
<PointData  Vectors="u"> 
<DataArray  type="Float64"  Name="u"  NumberOfComponents="3" format="ascii">2.0000000000020822e+02 2.0714480122561723e-10 2.1659677936834933e-10  1.9999999999959223e+02 1.9544598724137875e-10 2.0530306259672122e-10  1.9999999999913933e+02 1.7869479616998069e-10 1.7436584219929705e-10  1.9999999999871304e+02 1.7777467599754292e-10 1.8795197614627773e-10  1.9999999999828754e+02 1.6717300409654718e-10 1.7828337900746615e-10  1.9999999999791015e+02 7.5459255656213502e-11 7.5331299709242668e-11  2.0000000000019088e+02 5.4112562499316746e-11 2.0553086267471314e-10  1.9999999999960218e+02 4.2311478259306589e-11 1.8238627418008281e-10  1.9999999999913373e+02 4.8544589402645499e-11 1.6958257310653756e-10  1.9999999999870374e+02 3.7188106072647585e-11 1.6567000165092140e-10  1.9999999999829006e+02 2.7634421180375801e-11 1.4846635477019757e-10  1.9999999999788972e+02 1.9384830370180186e-11 7.5123110199136540e-11  2.0000000000020415e+02 3.2022795199856479e-11 2.0004500986947020e-10  1.9999999999958115e+02 1.3233305289185600e-11 1.8056530357776698e-10  1.9999999999912140e+02 3.1749705341968877e-11 1.6220472687454107e-10  1.9999999999871665e+02 4.5857285943003799e-11 1.6577641990774586e-10  1.9999999999828455e+02 3.4624560874674068e-11 1.5610804974659176e-10  1.9999999999789216e+02 1.7298231578610613e-11 7.5668945872741165e-11  2.0000000000019241e+02 4.0831768925888000e-11 1.8652853063398820e-10  1.9999999999959493e+02 2.7390484901851619e-11 1.9390605009620399e-10  1.9999999999914291e+02 2.0225305031741797e-11 1.8000795522150250e-10  1.9999999999871130e+02 2.8941385093794934e-11 1.7499262233229705e-10  1.9999999999829851e+02 1.3165154873563259e-11 1.4759857969875351e-10  1.9999999999790009e+02 1.2155829944366863e-11 6.6366230063305096e-11  2.0000000000018611e+02 1.8749452556733362e-11 1.7957547372274206e-10  1.9999999999957944e+02 7.6678468633358823e-12 1.8945836890112503e-10  1.9999999999913896e+02 1.7712002817908611e-11 1.7392611418971486e-10  1.9999999999869985e+02 1.0460778842861017e-11 1.6568678546459033e-10  1.9999999999828927e+02 1.6348407805024998e-11 1.5017398088973941e-10  1.9999999999789679e+02 8.3529114359489780e-12 7.3702126362564030e-11  2.0000000000018954e+02 -1.3961781342296069e-10 1.8632993447152569e-10  1.9999999999958047e+02 -1.4892627660066055e-10 1.7673972318838902e-10  1.9999999999912092e+02 -1.2576454676864653e-10 1.7388227644941275e-10  1.9999999999870434e+02 -1.1919972040133336e-10 1.7427475108017522e-10  1.9999999999829038e+02 -1.1271574173923467e-10 1.6194997225406108e-10  1.9999999999788682e+02 -4.2011033552714299e-11 6.7611755409835990e-11  2.0000000000019114e+02 1.9637222129402181e-10 4.1068205859736094e-11  1.9999999999958774e+02 1.6991145407911151e-10 4.2232353713886635e-11  1.9999999999913499e+02 1.5782455969534959e-10 3.5822393121993835e-11  1.9999999999870744e+02 1.7676396779095730e-10 3.2317027316967786e-11  1.9999999999829660e+02 1.6836576656495607e-10 4.3403801470072393e-11  1.9999999999789148e+02 6.9023996484240000e-11 1.6538060983144021e-11  2.0000000000019415e+02 5.0792707491726309e-11 4.1095063252215995e-11  1.9999999999958234e+02 3.1983901997464620e-11 3.2891271511584163e-11  1.9999999999912163e+02 4.2492501445964413e-11 2.2147592322149585e-11  1.9999999999869576e+02 3.8079515140284827e-11 2.5169113208858963e-11  1.9999999999829507e+02 3.0525991742455277e-11 2.6263532517499438e-11  1.9999999999788034e+02 1.5243480695185350e-11 8.2523221096594114e-12  2.0000000000019176e+02 3.4048587559414422e-11 3.5665542148947747e-11  1.9999999999957461e+02 2.6323865263314741e-11 2.5927550145991706e-11  1.9999999999912876e+02 2.8988031373692770e-11 2.8537987368717720e-11  1.9999999999869647e+02 2.1806056933006363e-11 2.6469002827951967e-11  1.9999999999829421e+02 2.4178708375819496e-11 2.7267963145011027e-11  1.9999999999789873e+02 1.1080074472837150e-11 6.9557816817067390e-12  2.0000000000019935e+02 3.4060626328000619e-11 3.5182253156683049e-11  1.9999999999958433e+02 3.4339048761174954e-11 2.8063258168896514e-11  1.9999999999913979e+02 2.3537568981445650e-11 2.9170388592913795e-11  1.9999999999870437e+02 1.5824245206372058e-11 2.4416496718970882e-11  1.9999999999828768e+02 3.5284105251706341e-11 3.8867543078023579e-11  1.9999999999789279e+02 1.5775403870526986e-12 1.1018536353447023e-11  2.0000000000019625e+02 1.6704262711496149e-11 4.4920656705067528e-11  1.9999999999957791e+02 1.3896840944216071e-11 4.0350922777232898e-11  1.9999999999911586e+02 8.7275496641654786e-12 3.4657177855553617e-11  1.9999999999870585e+02 1.0170450475169562e-11 3.8632181645187590e-11  1.9999999999829296e+02 1.0644088063400617e-12 2.1395023671429697e-11  1.9999999999788903e+02 3.6100163431693698e-12 1.2499256351724341e-11  2.0000000000019509e+02 -1.3669449027555621e-10 5.1658455561994101e-11  1.9999999999956859e+02 -1.3680900977822396e-10 2.8020257137731375e-11  1.9999999999910457e+02 -1.2030048774738797e-10 3.2514091307768776e-11  1.9999999999868672e+02 -1.2697538659342573e-10 2.9237894314028818e-11  1.9999999999827801e+02 -1.0849850058040051e-10 2.2744804446124345e-11  1.9999999999787929e+02 -3.8065353472986446e-11 1.1579897765959015e-11  2.0000000000019480e+02 2.0575421580213125e-10 3.4539037459411179e-11  1.9999999999958925e+02 1.9325892713200959e-10 1.3664678407514371e-11  1.9999999999912541e+02 1.6929573087318905e-10 1.6082884391634146e-11  1.9999999999869118e+02 1.7091955443984096e-10 2.4322412179954980e-11  1.9999999999828998e+02 1.4095923535618224e-10 3.0140741567613062e-11  1.9999999999789145e+02 7.8830537369260334e-11 9.6555498381728798e-12  2.0000000000018292e+02 4.8561473081477525e-11 1.9175075332341226e-11  1.9999999999958317e+02 3.6794172353485186e-11 1.9063223549860382e-11  1.9999999999912254e+02 3.1101159270866784e-11 1.6203502622090500e-11  1.9999999999870280e+02 3.7764325274581134e-11 2.2786107501278600e-11  1.9999999999828282e+02 3.1798607086080621e-11 1.8317522338872295e-11  1.9999999999790487e+02 1.4270873813848816e-11 8.7150574464382798e-12  2.0000000000017522e+02 3.8706657869545951e-11 2.4248356106345475e-11  1.9999999999957745e+02 2.3651661614858128e-11 2.1421626181046297e-11  1.9999999999913015e+02 2.4894961898158459e-11 9.0072398676140948e-12  1.9999999999870283e+02 1.0214340555414539e-11 2.0417974542787219e-11  1.9999999999830453e+02 3.0466839625512535e-11 7.8631467643246532e-12  1.9999999999787474e+02 1.0004790981244437e-11 1.2841195555912175e-11  2.0000000000020751e+02 4.4551598612728903e-11 3.7548623625124412e-11  1.9999999999957936e+02 2.5760613627596638e-11 1.8571167951064795e-11  1.9999999999911833e+02 2.8092327340827137e-11 1.1730829154470147e-11  1.9999999999870300e+02 9.3937720473232587e-12 1.9637668266181323e-11  1.9999999999828259e+02 2.6475529577150492e-11 1.6369236733156174e-11  1.9999999999789134e+02 1.4844207375742844e-11 7.4529545596336930e-12  2.0000000000019151e+02 1.0764433887496235e-11 2.8360483896944183e-11  1.9999999999959650e+02 4.6551370547402787e-12 1.1851537517453521e-11  1.9999999999912004e+02 1.8191796903746315e-11 1.0034214035089373e-11  1.9999999999869431e+02 2.4130592497209313e-11 1.6083507846223938e-11  1.9999999999829893e+02 1.6660202082984259e-11 2.6598588216783650e-11  1.9999999999787107e+02 9.7613408814357380e-12 1.1292794307039008e-11  2.0000000000019409e+02 -1.4276790974177033e-10 2.6407633050345688e-11  1.9999999999956626e+02 -1.3608976891164132e-10 7.5310036918929303e-12  1.9999999999910983e+02 -1.3036625787082443e-10 1.4200124732172433e-11  1.9999999999869127e+02 -9.8290728494929429e-11 1.0071354867637915e-11  1.9999999999828108e+02 -1.1073992810296198e-10 1.3737278628608861e-11  1.9999999999788369e+02 -4.5928246480603612e-11 8.1562902686976826e-12  2.0000000000019108e+02 2.0212699071642760e-10 3.1515578904609602e-11  1.9999999999958297e+02 1.7224081255529368e-10 1.8750099067704561e-11  1.9999999999912785e+02 1.8420013194950333e-10 3.6354454135879668e-11  1.9999999999869851e+02 1.6371971240628891e-10 3.8998872163735959e-11  1.9999999999830206e+02 1.6322458146271742e-10 3.1880784805127639e-11  1.9999999999788935e+02 7.6405027826686595e-11 1.5479663676528492e-11  2.0000000000019475e+02 4.3015044843766203e-11 2.5673641625406263e-11  1.9999999999958715e+02 3.3748508463736216e-11 2.0570480820474539e-11  1.9999999999912208e+02 3.8586381609653474e-11 8.9561716586914152e-12  1.9999999999869519e+02 4.0474867844308164e-11 9.2348013920098870e-12  1.9999999999829467e+02 2.9283583172371497e-11 1.4521575194291591e-11  1.9999999999787178e+02 1.3552919893246899e-11 2.1998418897682814e-12  2.0000000000017329e+02 3.6244954264171088e-11 2.5974633737437508e-11  1.9999999999958004e+02 2.8745547701385863e-11 1.2713708994442838e-11  1.9999999999912586e+02 2.2938790999290128e-11 1.1444526030700581e-11  1.9999999999869988e+02 2.1577169341237421e-11 1.9617134687284857e-11  1.9999999999829137e+02 2.3896630731019593e-11 -7.3165933932909707e-12  1.9999999999787210e+02 1.1847414962009181e-11 5.7128705650726436e-12  2.0000000000018912e+02 3.2974602299164710e-11 3.1340421085140546e-11  1.9999999999957129e+02 2.5109998765712543e-11 2.5872880047491436e-11  1.9999999999912373e+02 2.5428481443842817e-11 1.7040561699639182e-11  1.9999999999869462e+02 1.4195495936620385e-11 1.5271545352859238e-11  1.9999999999828498e+02 1.0652153197855470e-11 1.8364496290054778e-11  1.9999999999786741e+02 4.5940445940156067e-12 2.1878720562972622e-12  2.0000000000019665e+02 2.7994552626202076e-11 3.4550756385838141e-11  1.9999999999957959e+02 2.4920447092146627e-11 1.8003093395603879e-11  1.9999999999912202e+02 8.6144019259449186e-12 3.0323592345076103e-11  1.9999999999868817e+02 2.1082577124062317e-11 3.0394872214889858e-11  1.9999999999828350e+02 1.7088666721199213e-11 1.5379604082267022e-11  1.9999999999786911e+02 3.6272174003676899e-12 6.1952634767184980e-12  2.0000000000017522e+02 -1.3623093359615268e-10 1.9521187951435724e-11  1.9999999999956512e+02 -1.1756564804470129e-10 1.9938721974817326e-11  1.9999999999910983e+02 -1.1978266336515174e-10 9.1918783568714052e-12  1.9999999999867021e+02 -1.3014333508671957e-10 5.0907222366906119e-12  1.9999999999828873e+02 -1.0826595213619010e-10 1.2887647565397689e-11  1.9999999999787750e+02 -3.9964936388795241e-11 8.7855256064234792e-13  2.0000000000018892e+02 1.9335188267505933e-10 1.6183925385601458e-11  1.9999999999958550e+02 1.9675775732912774e-10 2.6594509161396095e-11  1.9999999999913749e+02 1.6318653969985527e-10 2.4093558477434439e-11  1.9999999999870934e+02 1.7136848262552893e-10 1.9827838096237718e-11  1.9999999999830189e+02 1.6201584370097832e-10 2.3252964051285571e-12  1.9999999999788707e+02 8.0942757501997434e-11 5.7339996297573114e-12  2.0000000000018690e+02 4.4871538703109006e-11 2.4726737455034952e-11  1.9999999999958922e+02 2.4893853671599648e-11 5.3039419943747450e-12  1.9999999999912657e+02 3.5961595698394027e-11 2.3592601072676358e-11  1.9999999999870170e+02 3.7436855777778345e-11 1.7820539871009896e-11  1.9999999999829700e+02 2.9083565769631193e-11 1.4718404710849842e-11  1.9999999999788594e+02 1.5925659288965813e-11 6.2359506244071436e-12  2.0000000000019699e+02 2.7827609843223937e-11 1.9105199152964759e-11  1.9999999999958033e+02 1.9035873679561943e-11 1.1843829772491994e-11  1.9999999999912271e+02 2.0067459626245412e-11 1.8968654525575309e-11  1.9999999999871451e+02 2.9969680403788834e-11 2.1334983931628149e-11  1.9999999999828839e+02 4.0664995672179250e-12 -6.0933677477205849e-12  1.9999999999788992e+02 7.3370253542391415e-12 5.4629503851757934e-12  2.0000000000019182e+02 3.0021954501403212e-11 7.4533581413577064e-12  1.9999999999958897e+02 1.8092949626571741e-11 5.5909855022290745e-12  1.9999999999910798e+02 3.3282326713498330e-11 1.6438756435026646e-11  1.9999999999869485e+02 2.2984420093632564e-11 -2.6841118718692965e-12  1.9999999999829618e+02 2.4515923984105659e-11 1.0204820898836968e-11  1.9999999999788741e+02 1.2215886173035593e-11 9.6057466545219799e-13  2.0000000000019006e+02 2.3975878552743579e-11 1.3936550807671923e-11  1.9999999999959070e+02 7.1413347394287591e-12 1.1123011185939166e-11  1.9999999999912239e+02 -2.8798586464032190e-12 2.6522991638779562e-11  1.9999999999869328e+02 1.2232429609912152e-11 9.6065009293292663e-12  1.9999999999828748e+02 1.6223582233032802e-11 7.3837807906274955e-12  1.9999999999788753e+02 2.3229954457264835e-12 -7.6631837224789968e-14  2.0000000000018082e+02 -1.4247667907062311e-10 7.6394469429977137e-12  1.9999999999955986e+02 -1.0969149255963253e-10 1.0041902317267324e-11  1.9999999999911154e+02 -1.2979835912451854e-10 2.1214950733617239e-11  1.9999999999869047e+02 -1.1624704800715040e-10 8.8445633008853703e-12  1.9999999999827298e+02 -1.0063847201785456e-10 6.1969707955298631e-12  1.9999999999787792e+02 -3.6496645511731679e-11 -6.0160268943609801e-12  2.0000000000019185e+02 2.0095831022290446e-10 -1.4414022471325345e-10  1.9999999999958092e+02 1.8881226033666073e-10 -1.3170912588963361e-10  1.9999999999912200e+02 1.8581240968904801e-10 -1.2440054283859500e-10  1.9999999999870403e+02 1.7519877230526226e-10 -1.2807242783807485e-10  1.9999999999829021e+02 1.6237553287618441e-10 -1.0776379956686987e-10  1.9999999999788164e+02 7.8619232769872627e-11 -3.2384678302720918e-11  2.0000000000019753e+02 3.6224275508604102e-11 -1.4826543396864731e-10  1.9999999999957765e+02 3.1963437441035402e-11 -1.0316538585987039e-10  1.9999999999911762e+02 2.2576444569427861e-11 -1.1253628115571632e-10  1.9999999999869371e+02 3.0713597867744094e-11 -1.2572373217741046e-10  1.9999999999828626e+02 2.1527418373051976e-11 -9.8880384508272295e-11  1.9999999999786377e+02 7.7361462819309445e-12 -3.2658124302056959e-11  2.0000000000017479e+02 1.6491906171297080e-11 -1.2179225210949422e-10  1.9999999999957910e+02 1.6893338704243861e-11 -1.3769414375358792e-10  1.9999999999911685e+02 1.8537488778786439e-11 -1.2819279932127769e-10  1.9999999999869931e+02 1.0174377509830842e-11 -1.1238934066913477e-10  1.9999999999829231e+02 2.3665479283396813e-11 -1.2092016003731101e-10  1.9999999999787602e+02 1.1096531533730445e-11 -4.4303059200165268e-11  2.0000000000018574e+02 1.5439429227870992e-11 -1.5075230571694303e-10  1.9999999999956225e+02 1.6139446006168356e-11 -1.2551571231608464e-10  1.9999999999910926e+02 5.1783579587293523e-12 -1.3900650372224874e-10  1.9999999999868413e+02 1.2680771363709062e-11 -1.1838136348523648e-10  1.9999999999828870e+02 6.8663432181230274e-12 -1.0715939267433739e-10  1.9999999999784046e+02 9.1649260116532679e-12 -2.6075250774362148e-11  2.0000000000019094e+02 1.6820761048773851e-11 -1.3739909371142573e-10  1.9999999999957552e+02 -3.7111900981417449e-12 -1.0970021726921033e-10  1.9999999999911205e+02 5.9628782766412341e-12 -1.2171949277197888e-10  1.9999999999867219e+02 2.0798385010811710e-11 -1.1762197989346129e-10  1.9999999999829041e+02 5.1607349163434103e-12 -1.1090468920424954e-10  1.9999999999786974e+02 5.2448744680685470e-13 -3.1406118441978634e-11  2.0000000000018875e+02 -1.4246784886553160e-10 -1.4360906891185158e-10  1.9999999999956950e+02 -1.4502864223089327e-10 -1.1225404253966772e-10  1.9999999999911378e+02 -1.1684362110203914e-10 -1.3314040504841471e-10  1.9999999999866148e+02 -1.1751146204513627e-10 -1.0220040658885387e-10  1.9999999999826991e+02 -1.1005719865139807e-10 -1.0512681567791766e-10  1.9999999999786507e+02 -3.7885802582718987e-11 -3.7933884823624639e-11  1.9999999999975088e+02 1.4643204259654542e-11 -8.5008775415418882e-12  2.0000000000001867e+02 -2.1329710593134866e-11 -9.3224209239931450e-13  1.9999999999969100e+02 -8.4511669347693675e-11 -1.4938359948000755e-10  1.9999999999999153e+02 -1.3519420746676966e-11 -3.4265381154374402e-11  1.9999999999969930e+02 -1.2389398904455380e-10 -8.8895828276663138e-11  1.9999999999986122e+02 -8.4823084796726699e-11 -8.8408671909829666e-11  1.9999999999973701e+02 -4.3704548712503585e-11 -4.5005189515465117e-11  1.9999999999932572e+02 6.5638182116393900e-12 -2.5519901029111288e-11  1.9999999999953911e+02 -2.6947978394738760e-11 2.7832802524215084e-11  1.9999999999926831e+02 -7.3226533168427244e-11 -1.2798621863385598e-10  1.9999999999952959e+02 -3.2152350682996605e-12 -3.5783329091535820e-11  1.9999999999925532e+02 -1.2429039941581966e-10 -6.7895961421402802e-11  1.9999999999951552e+02 -5.2157333753357330e-11 -6.7162558291140854e-11  1.9999999999929031e+02 -3.0311721773627642e-11 -5.2486062295744701e-11  1.9999999999887888e+02 -6.2294854636678318e-12 -4.0686648327461927e-12  1.9999999999906973e+02 -2.9697780240108194e-11 -5.2068071576873708e-12  1.9999999999884372e+02 -6.9569238305456602e-11 -1.3504638699413666e-10  1.9999999999910580e+02 -1.0702162258958058e-11 -1.5780647298210538e-11  1.9999999999882994e+02 -1.3975102001867441e-10 -7.7039593053293803e-11  1.9999999999906464e+02 -5.2559524238005971e-11 -5.1177398610949515e-11  1.9999999999887265e+02 -4.5605268658025053e-11 -3.7699200056532786e-11  1.9999999999845480e+02 1.2807665234434048e-11 -3.6766607375497946e-12  1.9999999999866031e+02 -3.0201173289134367e-11 -1.2473822215447077e-11  1.9999999999842990e+02 -7.0494267573736526e-11 -1.2720948533278732e-10  1.9999999999865867e+02 4.4568499607122877e-13 -3.4435505398810045e-11  1.9999999999840517e+02 -1.1051748989655272e-10 -7.4072735344945926e-11  1.9999999999864045e+02 -5.6595846927282659e-11 -5.6311444740756527e-11  1.9999999999844465e+02 -4.2869109156428157e-11 -4.8528628146938932e-11  1.9999999999809953e+02 -1.7192339475153825e-11 -1.2575292862733824e-11  1.9999999999823643e+02 -7.0645561575287624e-14 -1.1622617675496492e-11  1.9999999999806161e+02 -4.5446902437119094e-11 -1.0723029311538825e-10  1.9999999999826105e+02 -4.7102583135823723e-12 -3.8894122066911501e-11  1.9999999999805780e+02 -1.0804608219092223e-10 -4.8078155895345521e-11  1.9999999999824243e+02 -4.3442491776249723e-11 -5.8215173129906588e-11  1.9999999999808045e+02 -2.8215258118100066e-11 -3.0601670884704133e-11  1.9999999999786075e+02 -5.2347289643819878e-12 -2.4679671181923606e-11  1.9999999999786471e+02 -2.1441830148157970e-11 -7.9674357849041402e-12  1.9999999999785175e+02 -7.4995495288616741e-12 -7.8702022058407980e-12  1.9999999999974767e+02 -1.1686125368171311e-11 1.4718849746853914e-11  2.0000000000002152e+02 -1.7933898225681245e-11 6.5978255236155034e-12  1.9999999999969583e+02 -5.1842134647205663e-11 -1.4273052509539985e-10  2.0000000000000350e+02 -1.4001800401465348e-11 -4.2679747838879128e-11  1.9999999999971828e+02 -2.1194187714902961e-11 -5.5895499908644444e-11  1.9999999999984934e+02 -6.4356106914182111e-11 -8.3492026614438490e-11  1.9999999999973116e+02 -2.4902785389028229e-11 -5.8372209975226752e-11  1.9999999999928423e+02 -1.2317353000395206e-11 2.3938267479807773e-11  1.9999999999952533e+02 3.7861027903431492e-12 -1.4753149640357726e-12  1.9999999999926726e+02 -6.4314775641148164e-11 -1.1247597865823718e-10  1.9999999999955392e+02 -8.9974265360576999e-12 -2.8003807491259070e-11  1.9999999999928647e+02 -4.7109623443989583e-11 -5.6912672707382098e-11  1.9999999999949776e+02 -3.5090232389023956e-11 -6.4119841696427397e-11  1.9999999999930276e+02 -2.8573174607627286e-11 -5.8780872386798083e-11  1.9999999999887501e+02 -1.8174541125258436e-11 1.2278403760216876e-11  1.9999999999906274e+02 -3.1087704501910092e-11 -7.7567333671836971e-12  1.9999999999883562e+02 -6.6547479171852166e-11 -1.2205284814013223e-10  1.9999999999909838e+02 8.4042867072452047e-12 -1.5737897092808708e-11  1.9999999999885779e+02 -3.6341904682909523e-11 -5.4497419472875034e-11  1.9999999999905037e+02 -5.1598375256104372e-11 -4.5016168477588780e-11  1.9999999999886026e+02 -3.6431916861178102e-11 -3.6892837802906168e-11  1.9999999999847148e+02 -2.0246616049796440e-11 5.9354570368999751e-12  1.9999999999866094e+02 -2.7303220888401070e-11 9.2335683303296459e-13  1.9999999999842615e+02 -5.2029637821802133e-11 -1.1214492750892028e-10  1.9999999999867509e+02 -2.0465551675935821e-12 -2.1009828624080609e-11  1.9999999999844113e+02 -3.1728868085458494e-11 -5.6588828897206444e-11  1.9999999999865014e+02 -4.3005793202256268e-11 -4.9223753746330235e-11  1.9999999999844761e+02 -2.989379