<?xml version="1.0"?>
<VTKFile type="UnstructuredGrid"  version="0.1"  >
<UnstructuredGrid>
<Piece  NumberOfPoints="129" NumberOfCells="406">
<Points>
<DataArray  type="Float64"  NumberOfComponents="3"  format="ascii">30 40 0  30 40 5  30 35 5  25 35 5  30 40 10  30 35 10  25 35 10  40 40 0  40 40 5  40 35 5  35 35 5  40 35 0  35 35 0  40 40 10  40 30 10  40 35 10  35 35 10  35 40 5  35 40 0  35 40 10  35 45 5  35 45 0  40 45 5  40 45 0  40 50 0  40 50 5  40 50 10  40 45 10  35 45 10  30 45 0  30 50 0  35 50 5  35 50 0  30 45 5  30 45 10  30 50 10  35 50 10  30 50 5  45 45 5  45 45 10  45 50 10  50 50 10  45 50 5  30 40 15  30 35 15  25 35 15  30 40 20  40 35 15  35 35 15  40 40 15  40 40 20  40 30 15  40 30 20  40 35 20  35 35 20  35 40 15  35 40 20  35 45 15  40 45 15  40 50 15  40 50 20  40 45 20  35 45 20  35 50 15  30 45 15  30 45 20  30 50 20  35 50 20  30 50 15  45 45 15  45 50 15  50 50 15  50 50 20  45 45 20  45 50 20  50 30 0  50 35 5  50 35 0  45 35 5  45 35 0  50 40 0  50 40 5  50 40 10  50 30 10  50 35 10  45 35 10  45 30 10  45 40 5  45 40 0  45 40 10  45 45 0  50 45 5  50 45 0  50 50 0  50 50 5  50 45 10  45 50 0  50 30 15  50 25 15  45 25 15  50 30 20  45 30 15  45 30 20  45 35 15  50 35 15  50 40 15  50 40 20  50 35 20  45 35 20  45 40 15  45 40 20  50 45 15  50 45 20  45 25 20  45 25 25  20 40 0  25 40 5  25 40 0  25 35 0  20 40 10  25 40 10  20 35 10  25 45 5  25 45 0  25 45 10  25 50 5  25 40 15  25 45 15  25 50 15  </DataArray>
</Points>
<Cells>
<DataArray  type="UInt32"  Name="connectivity"  format="ascii">0 2 3 1  4 2 3 1  4 2 5 3  4 5 3 6  7 10 9 8  7 10 11 9  7 12 10 11  13 10 9 8  14 10 9 15  13 10 9 15  14 10 16 15  13 10 16 15  0 10 18 17  0 12 10 18  7 10 17 8  7 10 18 17  7 12 10 18  13 10 17 8  4 10 16 19  4 10 5 16  4 2 10 5  13 10 16 19  0 10 1 17  0 2 10 1  4 10 17 19  4 10 1 17  4 2 10 1  13 10 17 19  0 18 21 20  7 20 23 22  7 21 20 23  7 18 21 20  24 20 22 25  24 20 23 22  24 21 20 23  26 20 22 25  0 18 17 20  7 20 8 22  7 17 20 8  7 18 17 20  13 20 22 27  13 20 8 22  13 17 20 8  26 20 22 27  0 1 17 20  4 20 19 28  4 17 20 19  4 1 17 20  13 20 28 27  13 20 19 28  13 17 20 19  26 20 28 27  0 21 20 29  30 20 32 31  30 21 20 32  30 21 20 29  24 20 25 31  24 20 32 31  24 21 20 32  26 20 25 31  0 1 20 33  4 20 28 34  4 20 33 34  4 1 20 33  35 20 28 36  35 20 28 34  35 20 33 34  26 20 28 36  0 20 29 33  30 20 31 37  30 20 33 37  30 20 29 33  35 20 31 36  35 20 31 37  35 20 33 37  26 20 31 36  7 8 22 38  13 38 27 39  13 22 38 27  13 8 22 38  26 38 39 40  26 38 27 39  26 22 38 27  41 38 39 40  7 23 22 38  24 38 25 42  24 22 38 25  24 23 22 38  26 38 42 40  26 38 25 42  26 22 38 25  41 38 42 40  4 44 45 43  4 5 44 45  4 5 6 45  46 44 45 43  14 48 15 47  14 16 48 15  13 48 47 49  13 48 15 47  13 16 48 15  50 48 47 49  14 48 51 47  52 53 48 47  52 48 51 47  50 53 48 47  52 54 53 48  50 54 53 48  4 48 19 55  4 16 48 19  4 5 16 48  13 48 55 49  13 48 19 55  13 16 48 19  50 48 55 49  46 54 56 48  50 54 56 48  4 48 43 55  4 44 48 43  4 5 44 48  46 56 48 55  46 48 43 55  46 44 48 43  50 56 48 55  4 19 28 57  13 57 27 58  13 28 57 27  13 19 28 57  26 57 58 59  26 57 27 58  26 28 57 27  60 57 58 59  4 19 55 57  13 57 49 58  13 55 57 49  13 19 55 57  50 61 57 58  50 57 49 58  50 55 57 49  60 61 57 58  4 43 55 57  46 56 62 57  46 56 55 57  46 43 55 57  50 61 62 57  50 56 62 57  50 56 55 57  60 61 62 57  4 28 34 57  35 57 36 63  35 28 57 36  35 28 34 57  26 57 59 63  26 57 36 63  26 28 57 36  60 57 59 63  4 43 57 64  46 62 65 57  46 65 57 64  46 43 57 64  66 62 67 57  66 62 65 57  66 65 57 64  60 62 67 57  4 34 57 64  35 57 63 68  35 57 64 68  35 34 57 64  66 67 57 63  66 57 63 68  66 57 64 68  60 67 57 63  13 27 39 69  26 69 40 70  26 39 69 40  26 27 39 69  41 69 70 71  41 69 40 70  41 39 69 40  72 69 70 71  13 49 58 69  50 61 73 69  50 61 58 69  50 49 58 69  60 73 74 69  60 61 73 69  60 61 58 69  72 73 74 69  13 27 58 69  26 69 59 70  26 58 69 59  26 27 58 69  60 74 69 70  60 69 59 70  60 58 69 59  72 74 69 70  75 78 77 76  75 79 78 77  80 78 76 81  80 78 77 76  80 79 78 77  82 78 76 81  83 78 76 84  82 78 76 84  14 78 86 85  83 78 85 84  83 78 86 85  82 78 85 84  7 78 88 87  7 79 78 88  7 11 79 78  80 78 81 87  80 78 88 87  80 79 78 88  82 78 81 87  14 15 78 85  14 9 15 78  13 78 85 89  13 15 78 85  13 9 15 78  82 78 85 89  7 8 78 87  7 9 8 78  7 11 9 78  13 78 87 89  13 8 78 87  13 9 8 78  82 78 87 89  7 38 88 90  80 38 92 91  80 38 92 90  80 38 88 90  93 38 91 94  93 38 92 91  93 38 92 90  41 38 91 94  7 38 88 87  80 38 81 91  80 38 81 87  80 38 88 87  82 38 91 95  82 38 81 91  82 38 81 87  41 38 91 95  7 8 38 87  13 38 39 89  13 38 87 89  13 8 38 87  82 38 39 95  82 38 39 89  82 38 87 89  41 38 39 95  7 23 38 90  24 38 42 96  24 38 90 96  24 23 38 90  93 38 42 94  93 38 42 96  93 38 90 96  41 38 42 94  83 99 98 97  100 99 98 97  14 99 86 101  83 99 101 97  83 99 86 101  100 99 101 97  14 51 99 101  52 102 99 101  52 51 99 101  100 102 99 101  14 86 85 103  83 103 84 104  83 85 103 84  83 86 85 103  82 103 104 105  82 103 84 104  82 85 103 84  106 103 104 105  14 86 101 103  83 103 97 104  83 101 103 97  83 86 101 103  100 107 103 104  100 103 97 104  100 101 103 97  106 107 103 104  14 51 101 103  52 102 108 103  52 102 101 103  52 51 101 103  100 108 107 103  100 102 108 103  100 102 101 103  106 108 107 103  14 15 85 103  13 103 89 109  13 85 103 89  13 15 85 103  82 103 105 109  82 103 89 109  82 85 103 89  106 103 105 109  14 51 47 103  52 53 108 103  52 53 47 103  52 51 47 103  50 108 110 103  50 53 108 103  50 53 47 103  106 108 110 103  14 15 47 103  13 49 103 109  13 47 49 103  13 15 47 103  50 110 103 109  50 49 103 109  50 47 49 103  106 110 103 109  13 39 69 89  82 69 95 111  82 39 69 95  82 39 69 89  41 69 71 111  41 69 95 111  41 39 69 95  72 69 71 111  13 69 89 109  82 69 105 111  82 69 105 109  82 69 89 109  106 112 69 111  106 69 105 111  106 69 105 109  72 112 69 111  13 49 69 109  50 110 73 69  50 110 69 109  50 49 69 109  106 73 112 69  106 110 73 69  106 110 69 109  72 73 112 69  52 102 99 113  100 102 99 113  52 102 113 114  100 102 113 114  115 3 117 116  115 118 3 117  0 3 1 116  0 3 117 116  0 118 3 117  4 3 1 116  119 3 6 120  119 3 6 121  4 3 6 120  119 3 116 120  4 3 116 120  115 117 123 122  0 29 33 122  0 29 123 122  0 117 123 122  30 33 37 122  30 29 33 122  30 29 123 122  35 33 37 122  115 117 116 122  0 1 33 122  0 1 116 122  0 117 116 122  4 33 34 122  4 1 33 122  4 1 116 122  35 33 34 122  119 122 120 124  119 116 122 120  4 34 122 124  4 122 120 124  4 116 122 120  35 34 122 124  30 37 122 125  35 37 122 125  119 45 120 126  119 6 45 120  119 6 45 121  4 45 43 126  4 45 120 126  4 6 45 120  46 45 43 126  119 120 124 127  4 34 64 127  4 34 124 127  4 120 124 127  35 64 68 127  35 34 64 127  35 34 124 127  66 64 68 127  119 120 126 127  4 43 64 127  4 43 126 127  4 120 126 127  46 65 64 127  46 43 64 127  46 43 126 127  66 65 64 127  35 68 127 128  66 68 127 128  </DataArray>
<DataArray  type="UInt32"  Name="offsets"  format="ascii">4 8 12 16 20 24 28 32 36 40 44 48 52 56 60 64 68 72 76 80 84 88 92 96 100 104 108 112 116 120 124 128 132 136 140 144 148 152 156 160 164 168 172 176 180 184 188 192 196 200 204 208 212 216 220 224 228 232 236 240 244 248 252 256 260 264 268 272 276 280 284 288 292 296 300 304 308 312 316 320 324 328 332 336 340 344 348 352 356 360 364 368 372 376 380 384 388 392 396 400 404 408 412 416 420 424 428 432 436 440 444 448 452 456 460 464 468 472 476 480 484 488 492 496 500 504 508 512 516 520 524 528 532 536 540 544 548 552 556 560 564 568 572 576 580 584 588 592 596 600 604 608 612 616 620 624 628 632 636 640 644 648 652 656 660 664 668 672 676 680 684 688 692 696 700 704 708 712 716 720 724 728 732 736 740 744 748 752 756 760 764 768 772 776 780 784 788 792 796 800 804 808 812 816 820 824 828 832 836 840 844 848 852 856 860 864 868 872 876 880 884 888 892 896 900 904 908 912 916 920 924 928 932 936 940 944 948 952 956 960 964 968 972 976 980 984 988 992 996 1000 1004 1008 1012 1016 1020 1024 1028 1032 1036 1040 1044 1048 1052 1056 1060 1064 1068 1072 1076 1080 1084 1088 1092 1096 1100 1104 1108 1112 1116 1120 1124 1128 1132 1136 1140 1144 1148 1152 1156 1160 1164 1168 1172 1176 1180 1184 1188 1192 1196 1200 1204 1208 1212 1216 1220 1224 1228 1232 1236 1240 1244 1248 1252 1256 1260 1264 1268 1272 1276 1280 1284 1288 1292 1296 1300 1304 1308 1312 1316 1320 1324 1328 1332 1336 1340 1344 1348 1352 1356 1360 1364 1368 1372 1376 1380 1384 1388 1392 1396 1400 1404 1408 1412 1416 1420 1424 1428 1432 1436 1440 1444 1448 1452 1456 1460 1464 1468 1472 1476 1480 1484 1488 1492 1496 1500 1504 1508 1512 1516 1520 1524 1528 1532 1536 1540 1544 1548 1552 1556 1560 1564 1568 1572 1576 1580 1584 1588 1592 1596 1600 1604 1608 1612 1616 1620 1624 </DataArray>
<DataArray  type="UInt8"  Name="types"  format="ascii">10 10 10 10 10 10 10 10 10 10 10 10 10 10 10 10 10 10 10 10 10 10 10 10 10 10 10 10 10 10 10 10 10 10 10 10 10 10 10 10 10 10 10 10 10 10 10 10 10 10 10 10 10 10 10 10 10 10 10 10 10 10 10 10 10 10 10 10 10 10 10 10 10 10 10 10 10 10 10 10 10 10 10 10 10 10 10 10 10 10 10 10 10 10 10 10 10 10 10 10 10 10 10 10 10 10 10 10 10 10 10 10 10 10 10 10 10 10 10 10 10 10 10 10 10 10 10 10 10 10 10 10 10 10 10 10 10 10 10 10 10 10 10 10 10 10 10 10 10 10 10 10 10 10 10 10 10 10 10 10 10 10 10 10 10 10 10 10 10 10 10 10 10 10 10 10 10 10 10 10 10 10 10 10 10 10 10 10 10 10 10 10 10 10 10 10 10 10 10 10 10 10 10 10 10 10 10 10 10 10 10 10 10 10 10 10 10 10 10 10 10 10 10 10 10 10 10 10 10 10 10 10 10 10 10 10 10 10 10 10 10 10 10 10 10 10 10 10 10 10 10 10 10 10 10 10 10 10 10 10 10 10 10 10 10 10 10 10 10 10 10 10 10 10 10 10 10 10 10 10 10 10 10 10 10 10 10 10 10 10 10 10 10 10 10 10 10 10 10 10 10 10 10 10 10 10 10 10 10 10 10 10 10 10 10 10 10 10 10 10 10 10 10 10 10 10 10 10 10 10 10 10 10 10 10 10 10 10 10 10 10 10 10 10 10 10 10 10 10 10 10 10 10 10 10 10 10 10 10 10 10 10 10 10 10 10 10 10 10 10 10 10 10 10 10 10 10 10 10 10 10 10 10 10 10 10 10 10 10 10 10 10 10 10 10 10 10 10 10 10 10 10 10 10 10 10 </DataArray>
</Cells>
<PointData  Vectors="u"> 
<DataArray  type="Float64"  Name="u"  NumberOfComponents="3" format="ascii">1.9999999999868706e+02 2.2674486741359586e-11 1.7357381396949665e-10  1.9999999999868652e+02 -1.7126254532770582e-11 -2.2522879028134123e-11  1.9999999999868879e+02 -5.2713668786069790e-11 -7.5671707817291454e-11  1.9999999999891219e+02 -1.1602742078843260e-11 -2.5697746281300284e-11  1.9999999999868845e+02 3.0043231939622909e-11 4.0927296983943279e-11  1.9999999999871670e+02 -1.5442352799299438e-11 -1.0643039254305578e-11  1.9999999999891401e+02 -2.6225544530965567e-11 -3.3338589582744965e-11  1.9999999999831874e+02 9.6006083654023115e-12 1.5658860293472555e-10  1.9999999999828890e+02 -1.9922431638929663e-12 -6.0701621087634193e-12  1.9999999999828063e+02 -3.2328490048427684e-11 -4.2368845644122910e-11  1.9999999999849001e+02 -1.5028662131233508e-11 -3.6061280682012740e-11  1.9999999999829464e+02 -7.7106866236754445e-12 -7.2171196913651360e-12  1.9999999999845724e+02 -4.7304179612929056e-11 -1.0666427659093114e-10  1.9999999999831527e+02 1.2846500208893391e-11 2.1963954840913364e-11  1.9999999999831775e+02 9.0360599974051835e-12 2.4487114561438645e-11  1.9999999999828864e+02 -1.1646503934542346e-11 3.3686125494257145e-12  1.9999999999848615e+02 -3.0633140034841221e-11 -3.8464789377094200e-11  1.9999999999848001e+02 -4.2093244402772359e-11 -4.0843805443928225e-11  1.9999999999849760e+02 -3.7155716555769444e-11 8.4513230993619725e-12  1.9999999999849621e+02 -7.3741196315196262e-12 5.4419574565546673e-12  1.9999999999849706e+02 -2.6164188224203981e-12 -2.6136543628121376e-11  1.9999999999850274e+02 -2.9009592592723266e-11 -1.3697544133852602e-10  1.9999999999826014e+02 -6.1791692137183700e-13 -3.3903006596408729e-11  1.9999999999829097e+02 8.3873768758655217e-12 -4.2374890277512877e-12  1.9999999999831772e+02 -1.1480519555963542e-10 1.5765561435124538e-10  1.9999999999831647e+02 -1.3785919230728402e-11 -1.4459658508674681e-11  1.9999999999830320e+02 -1.1492831693978706e-10 2.6457686907784976e-11  1.9999999999828640e+02 1.2303977249893042e-11 2.8501945875605532e-12  1.9999999999850164e+02 -8.5820005592369150e-12 -5.7204176622840577e-11  1.9999999999872057e+02 2.4527415760570404e-13 4.8459363931903154e-12  1.9999999999867131e+02 -1.1183427243681856e-10 1.7116068687730872e-10  1.9999999999850411e+02 6.5960423243686726e-11 -2.9022576458008879e-11  1.9999999999850587e+02 2.2678593502885848e-11 2.8599884804296029e-11  1.9999999999871849e+02 -6.9350186754842926e-12 -4.1756531741431549e-11  1.9999999999872549e+02 5.2679340054088634e-12 -1.1232463890899811e-11  1.9999999999867549e+02 -1.2677284075628945e-10 3.8307084417719694e-11  1.9999999999852056e+02 4.7469402725231047e-12 3.4639610026078236e-11  1.9999999999872142e+02 1.0827672915310576e-12 -2.3945945199339658e-11  1.9999999999809205e+02 3.8479210311822940e-12 -2.2146439065587156e-11  1.9999999999809302e+02 1.2187231725896935e-11 -5.8930940435118312e-11  1.9999999999811797e+02 -8.1374118230319208e-12 1.4555172037343095e-11  1.9999999999790057e+02 -3.8041082097809147e-11 4.3303159704544997e-12  1.9999999999812692e+02 3.6827508138211779e-11 -1.5828412072691262e-11  1.9999999999870832e+02 -2.9101160395275286e-11 -1.3179965793651923e-11  1.9999999999869192e+02 -4.2956084620344915e-11 -9.2165850126115243e-13  1.9999999999892452e+02 -1.4135435839953052e-11 -1.2187599155324462e-11  1.9999999999867714e+02 1.1321041642649763e-11 2.7846663564767325e-12  1.9999999999829987e+02 -1.6836189167954559e-11 7.5297015646512599e-13  1.9999999999848367e+02 -6.0278836986123363e-12 -1.0600459566693317e-11  1.9999999999826801e+02 -1.9102245127847692e-11 1.0021618010148418e-12  1.9999999999830908e+02 1.7670411058332570e-11 -5.1135213822001300e-12  1.9999999999827847e+02 -2.8705790265393915e-12 1.0422334403054660e-11  1.9999999999832517e+02 -1.2537406689293656e-11 6.3356987235604701e-12  1.9999999999829524e+02 -1.3892608896300685e-11 6.1905651853177830e-13  1.9999999999850462e+02 -4.0327910871609026e-11 -3.6479658589007483e-11  1.9999999999847594e+02 -1.4467458435025416e-11 -6.8083984557927142e-12  1.9999999999850908e+02 -1.0251804436084796e-11 4.4216688342072995e-12  1.9999999999848561e+02 4.0861114588733610e-12 -1.2717004930724338e-11  1.9999999999827870e+02 1.1000739494100761e-11 -1.1980461670473942e-11  1.9999999999830297e+02 -3.0355130777548017e-11 -4.6392047579561515e-13  1.9999999999830121e+02 -1.1060877839582309e-10 -1.6487035840741121e-11  1.9999999999830942e+02 -3.1165907663618912e-12 -1.2391756735956022e-11  1.9999999999855285e+02 -2.4322182276492829e-11 -2.3731544210891802e-11  1.9999999999850456e+02 6.8845007107527063e-11 -2.8559343378427610e-12  1.9999999999870158e+02 1.2685015976894251e-12 -1.2442004276718631e-11  1.9999999999871247e+02 1.5625743594358955e-11 1.9826890762941015e-11  1.9999999999866884e+02 -1.2758101349190541e-10 -2.7305897637254271e-12  1.9999999999851653e+02 5.7040681359137528e-12 3.4451041865973291e-11  1.9999999999874169e+02 -2.0764139714860696e-12 -1.1408198310768713e-11  1.9999999999808819e+02 8.1818467237888364e-12 -8.2125140336679622e-12  1.9999999999811558e+02 4.9765102629337902e-11 -1.7824228087646866e-12  1.9999999999783162e+02 1.8354820958890562e-11 5.3081327969941544e-12  1.9999999999790680e+02 -3.9728402508006695e-11 -2.3044451239200757e-12  1.9999999999809364e+02 -3.4522575199259571e-11 -1.8166748213889584e-11  1.9999999999813102e+02 4.6564863424976811e-12 3.1400912683833346e-11  1.9999999999792269e+02 7.2583722231177133e-12 7.6767547099221694e-11  1.9999999999784765e+02 -2.8226504794341717e-12 -7.2750428854459850e-12  1.9999999999787389e+02 -2.5066642926244467e-12 -1.0910944712473822e-11  1.9999999999810333e+02 -1.7530593122844702e-11 -2.1614953397613878e-11  1.9999999999808838e+02 -4.2078566103375499e-11 -9.1794429338453929e-11  1.9999999999791896e+02 2.9777468825813322e-12 5.8648905127930326e-11  1.9999999999787079e+02 -4.2835872240367974e-12 2.4263970598566303e-13  1.9999999999790660e+02 -4.1763172227301216e-12 4.6176094392606663e-12  1.9999999999790776e+02 -5.2638023621044558e-13 7.2837008907678375e-12  1.9999999999784558e+02 3.8785193462510425e-12 -1.7764077501162258e-12  1.9999999999810797e+02 -2.0298818924150530e-11 -5.2588501382234723e-11  1.9999999999811834e+02 -9.3058272437006107e-12 -3.7035914753317590e-15  1.9999999999812036e+02 -9.3093097863175767e-12 -1.4120876258271694e-11  1.9999999999811840e+02 1.3349958100556227e-11 1.1272518929724587e-11  1.9999999999810896e+02 1.8487138450794078e-12 1.0544513946830229e-11  1.9999999999812874e+02 1.3112916282327674e-11 -7.5823700010806462e-11  1.9999999999789230e+02 3.1094067570891607e-12 -9.6199023023268041e-12  1.9999999999786533e+02 1.8376601252929299e-12 2.1782437374849823e-12  1.9999999999790512e+02 -3.6701417261437558e-11 5.8171462832642300e-11  1.9999999999787235e+02 1.7422357573319060e-11 -1.9448831084155391e-12  1.9999999999787485e+02 3.1514507603808238e-12 5.4527134132262412e-12  1.9999999999812371e+02 5.1730718824351010e-12 1.5658689154176466e-11  1.9999999999783685e+02 -1.2533072475820770e-11 6.7445555273404142e-12  1.9999999999783347e+02 6.1799020925993879e-12 3.2674865004917935e-12  1.9999999999809009e+02 -1.0898575988732722e-11 -1.3300878447797068e-11  1.9999999999790361e+02 -1.7616322861111120e-12 3.9523784132298714e-12  1.9999999999810791e+02 -2.2857673907906632e-11 -4.6372382721740489e-12  1.9999999999810561e+02 -1.0823743662765895e-11 8.5377152766703335e-12  1.9999999999809842e+02 -1.1090970053754686e-11 -1.0996913550185765e-11  1.9999999999785729e+02 -2.2636771650767547e-12 3.3021339348143906e-12  1.9999999999783046e+02 -1.2630729238171183e-12 6.3282708429573198e-12  1.9999999999790774e+02 4.1858469873582890e-12 -1.5616926729494011e-13  1.9999999999787732e+02 3.0014165767274059e-12 3.6622459789907204e-11  1.9999999999808153e+02 -4.7655387234692026e-11 -1.2404119706451508e-11  1.9999999999812516e+02 8.1110975785622524e-13 -7.5512309770514771e-12  1.9999999999812320e+02 -2.1664722154573236e-11 1.3701572514738397e-11  1.9999999999786635e+02 2.8595972733821673e-12 7.9648670401036250e-12  1.9999999999787013e+02 1.6057328665321201e-12 4.0215901262843467e-11  1.9999999999811320e+02 -8.1832296038831390e-12 4.6114766399813921e-12  1.9999999999809654e+02 -1.0270691005301449e-11 -4.8031691995373536e-12  1.9999999999909915e+02 1.7278147072108698e-11 1.8679063743653941e-10  1.9999999999890736e+02 -1.9253778465457821e-11 -5.1187824909572122e-11  1.9999999999890690e+02 -2.6175061191666875e-11 -2.2003893663947760e-12  1.9999999999894362e+02 -4.5856718194897242e-11 -1.1908149317035394e-10  1.9999999999909753e+02 1.7939128601840244e-11 3.1031964068701103e-11  1.9999999999892140e+02 6.9780414097949857e-12 -1.0132284791347955e-11  1.9999999999914928e+02 -6.2872878929708308e-12 -8.5274495998252627e-12  1.9999999999890937e+02 1.7565641872736591e-11 -3.0771008595409375e-11  1.9999999999891230e+02 -1.0902017450116754e-11 -1.1920320712908043e-10  1.9999999999891588e+02 -3.9925983432418605e-12 -2.6783637488514090e-11  1.9999999999891364e+02 7.7159184009167529e-11 -2.6942232402802513e-11  1.9999999999890943e+02 -1.6994899469009535e-11 -2.7192933308505209e-11  1.9999999999890690e+02 1.4014920386865965e-11 -2.7290333706895961e-11  1.9999999999892086e+02 6.7903031265583362e-11 -5.8163109130441148e-13  </DataArray> 
</PointData> 
</Piece>
</UnstructuredGrid>
</VTKFile>