<?xml version="1.0"?>
<VTKFile type="UnstructuredGrid"  version="0.1"  >
<UnstructuredGrid>
<Piece  NumberOfPoints="132" NumberOfCells="418">
<Points>
<DataArray  type="Float64"  NumberOfComponents="3"  format="ascii">0 10 20  5 15 20  5 10 20  5 15 15  10 10 20  10 15 20  10 20 20  0 15 20  0 15 15  0 20 20  5 20 20  10 10 25  10 5 25  5 5 25  10 10 30  10 0 30  10 5 30  5 10 25  0 10 25  0 5 25  0 10 30  5 10 30  15 5 30  15 5 25  15 10 30  20 10 30  15 10 25  5 15 25  10 15 25  10 20 25  10 20 30  10 15 30  5 15 30  5 20 25  0 15 25  0 15 30  0 20 30  5 20 30  0 20 25  15 15 25  15 15 30  15 20 25  5 25 25  10 25 25  10 25 30  10 30 30  5 25 30  0 25 25  0 25 30  0 30 30  5 30 30  15 25 25  5 25 35  0 25 35  15 0 30  20 0 30  20 5 30  15 5 35  20 5 35  20 10 35  20 10 40  15 0 35  20 0 35  20 0 40  20 5 40  10 0 35  10 0 40  15 5 40  15 0 40  15 10 35  10 5 35  10 5 40  10 10 40  15 10 40  10 10 35  25 5 35  25 0 35  25 5 40  25 0 40  25 10 35  15 15 35  25 15 35  15 5 45  20 5 45  20 10 45  20 10 50  15 0 45  20 0 45  20 0 50  20 5 50  10 0 45  10 0 50  15 5 50  15 0 50  15 10 45  10 5 45  10 5 50  10 10 50  15 10 50  10 10 45  25 5 45  25 0 45  25 5 50  25 0 50  15 15 45  0 0 30  5 5 30  5 0 30  0 5 30  5 5 35  5 0 35  0 0 35  0 0 40  5 5 40  5 0 40  5 10 35  0 5 35  0 5 40  0 10 40  5 10 40  0 10 35  5 15 35  10 15 35  0 15 35  5 5 45  5 0 45  0 0 45  0 0 50  5 5 50  5 0 50  0 5 45  0 5 50  </DataArray>
</Points>
<Cells>
<DataArray  type="UInt32"  Name="connectivity"  format="ascii">0 2 1 3  4 5 1 3  4 2 1 3  6 5 1 3  0 1 7 3  0 7 3 8  9 1 3 10  9 1 7 3  9 7 3 8  6 1 3 10  4 13 12 11  14 13 12 11  15 13 12 16  14 13 12 16  0 13 2 17  4 13 11 17  4 13 2 17  14 13 11 17  0 13 17 18  0 13 19 18  20 13 17 21  20 13 17 18  20 13 19 18  14 13 17 21  15 23 16 22  15 12 23 16  14 23 24 22  14 23 16 22  14 12 23 16  25 23 24 22  4 23 11 26  4 12 23 11  14 23 26 24  14 23 11 26  14 12 23 11  25 23 26 24  0 2 1 27  4 5 28 27  4 5 1 27  4 2 1 27  6 28 27 29  6 5 28 27  6 5 1 27  30 28 27 29  0 2 17 27  4 11 28 27  4 11 17 27  4 2 17 27  14 28 27 31  14 11 28 27  14 11 17 27  30 28 27 31  0 17 18 27  20 27 21 32  20 17 27 21  20 17 18 27  14 27 31 32  14 27 21 32  14 17 27 21  30 27 31 32  0 1 7 27  9 27 10 33  9 1 27 10  9 1 7 27  6 27 29 33  6 27 10 33  6 1 27 10  30 27 29 33  0 18 27 34  20 27 32 35  20 27 34 35  20 18 27 34  36 27 32 37  36 27 32 35  36 27 34 35  30 27 32 37  0 7 27 34  9 27 33 38  9 27 34 38  9 7 27 34  36 27 33 37  36 27 33 38  36 27 34 38  30 27 33 37  4 11 26 39  14 39 24 40  14 26 39 24  14 11 26 39  25 39 24 40  25 26 39 24  4 11 28 39  14 39 31 40  14 28 39 31  14 11 28 39  30 39 31 40  30 28 39 31  4 5 28 39  6 39 29 41  6 28 39 29  6 5 28 39  30 39 29 41  30 28 39 29  9 42 10 33  6 42 29 43  6 42 29 33  6 42 10 33  30 42 43 44  30 42 29 43  30 42 29 33  45 42 43 44  9 42 33 38  36 42 37 46  36 42 33 37  36 42 33 38  30 42 44 46  30 42 37 46  30 42 33 37  45 42 44 46  9 42 47 38  36 42 46 48  36 42 47 48  36 42 47 38  49 42 50 46  49 42 46 48  49 42 47 48  45 42 50 46  6 29 41 51  30 29 41 51  6 29 43 51  30 43 51 44  30 29 43 51  45 43 51 44  36 37 46 52  30 44 46 52  30 37 46 52  45 44 46 52  36 46 48 52  49 50 46 52  49 46 48 52  45 50 46 52  36 48 52 53  49 48 52 53  15 23 22 54  55 23 22 56  55 23 22 54  25 23 22 56  15 22 54 57  55 56 58 57  55 22 56 57  55 22 54 57  25 58 57 59  25 56 58 57  25 22 56 57  60 58 57 59  15 54 57 61  55 58 62 57  55 62 57 61  55 54 57 61  63 58 57 64  63 58 62 57  63 62 57 61  60 58 57 64  15 57 61 65  66 57 67 68  66 57 61 68  66 57 61 65  63 57 64 67  63 57 67 68  63 57 61 68  60 57 64 67  15 16 22 57  14 24 57 69  14 24 22 57  14 16 22 57  25 57 59 69  25 24 57 69  25 24 22 57  60 57 59 69  15 57 65 70  66 57 67 71  66 57 70 71  66 57 65 70  72 57 67 73  72 57 67 71  72 57 70 71  60 57 67 73  15 16 57 70  14 57 69 74  14 57 70 74  14 16 57 70  72 57 69 73  72 57 69 74  72 57 70 74  60 57 69 73  55 62 75 76  63 75 77 78  63 75 76 78  63 62 75 76  55 58 62 75  63 75 64 77  63 58 75 64  63 58 62 75  60 75 64 77  60 58 75 64  55 56 58 75  25 75 59 79  25 58 75 59  25 56 58 75  60 75 59 79  60 58 75 59  14 24 40 80  25 24 40 80  14 24 69 80  25 59 69 80  25 24 69 80  60 59 69 80  14 69 74 80  72 69 73 80  72 69 74 80  60 69 73 80  25 59 79 81  60 59 79 81  66 67 68 82  63 64 83 82  63 64 67 82  63 67 68 82  60 84 83 82  60 64 83 82  60 64 67 82  85 84 83 82  66 68 82 86  63 83 87 82  63 87 82 86  63 68 82 86  88 83 82 89  88 83 87 82  88 87 82 86  85 83 82 89  66 82 86 90  91 82 92 93  91 82 86 93  91 82 86 90  88 82 89 92  88 82 92 93  88 82 86 93  85 82 89 92  66 67 71 82  72 73 82 94  72 67 73 82  72 67 71 82  60 84 82 94  60 73 82 94  60 67 73 82  85 84 82 94  66 82 90 95  91 82 92 96  91 82 95 96  91 82 90 95  97 82 92 98  97 82 92 96  97 82 95 96  85 82 92 98  66 71 82 95  72 82 94 99  72 82 95 99  72 71 82 95  97 82 94 98  97 82 94 99  97 82 95 99  85 82 94 98  63 77 78 100  63 78 100 101  63 87 100 101  88 100 102 103  88 100 101 103  88 87 100 101  63 64 77 100  60 64 77 100  63 83 87 100  88 100 89 102  88 83 100 89  88 83 87 100  85 100 89 102  85 83 100 89  63 64 83 100  60 84 83 100  60 64 83 100  85 84 83 100  72 73 94 104  60 84 94 104  60 73 94 104  85 84 94 104  72 94 99 104  97 94 104 98  97 94 99 104  85 94 104 98  105 13 107 106  15 13 16 106  15 13 107 106  14 13 16 106  105 13 106 108  105 13 19 108  20 13 21 106  20 13 106 108  20 13 19 108  14 13 21 106  105 107 106 109  15 16 70 109  15 16 106 109  15 107 106 109  14 70 74 109  14 16 70 109  14 16 106 109  72 70 74 109  105 107 109 110  15 65 70 109  15 65 109 110  15 107 109 110  66 70 71 109  66 65 70 109  66 65 109 110  72 70 71 109  105 109 110 111  112 109 113 114  112 109 110 114  112 109 110 111  66 71 109 113  66 109 113 114  66 109 110 114  72 71 109 113  105 106 108 109  20 21 109 115  20 21 106 109  20 106 108 109  14 74 109 115  14 21 109 115  14 21 106 109  72 74 109 115  105 109 111 116  112 109 113 117  112 109 116 117  112 109 111 116  118 109 113 119  118 109 113 117  118 109 116 117  72 109 113 119  105 108 109 116  20 109 115 120  20 109 116 120  20 108 109 116  118 109 115 119  118 109 115 120  118 109 116 120  72 109 115 119  20 21 32 121  14 31 122 121  14 31 32 121  14 21 32 121  30 31 122 121  30 31 32 121  20 21 115 121  14 74 122 121  14 74 115 121  14 21 115 121  72 74 122 121  72 74 115 121  20 115 120 121  118 115 121 119  118 115 120 121  72 115 121 119  20 32 35 121  36 32 37 121  36 32 35 121  30 32 37 121  20 120 121 123  118 120 121 123  20 35 121 123  36 35 121 123  14 31 40 80  30 31 40 80  14 74 80 122  72 74 80 122  14 31 80 122  30 31 80 122  112 113 114 124  66 71 95 124  66 71 113 124  66 113 114 124  72 95 99 124  72 71 95 124  72 71 113 124  97 95 99 124  112 114 124 125  66 90 95 124  66 90 124 125  66 114 124 125  91 95 96 124  91 90 95 124  91 90 124 125  97 95 96 124  112 124 125 126  127 124 128 129  127 124 125 129  127 124 125 126  91 96 124 128  91 124 128 129  91 124 125 129  97 96 124 128  112 113 117 124  118 113 119 124  118 113 117 124  72 113 119 124  112 124 126 130  127 124 128 131  127 124 130 131  127 124 126 130  112 117 124 130  118 117 124 130  </DataArray>
<DataArray  type="UInt32"  Name="offsets"  format="ascii">4 8 12 16 20 24 28 32 36 40 44 48 52 56 60 64 68 72 76 80 84 88 92 96 100 104 108 112 116 120 124 128 132 136 140 144 148 152 156 160 164 168 172 176 180 184 188 192 196 200 204 208 212 216 220 224 228 232 236 240 244 248 252 256 260 264 268 272 276 280 284 288 292 296 300 304 308 312 316 320 324 328 332 336 340 344 348 352 356 360 364 368 372 376 380 384 388 392 396 400 404 408 412 416 420 424 428 432 436 440 444 448 452 456 460 464 468 472 476 480 484 488 492 496 500 504 508 512 516 520 524 528 532 536 540 544 548 552 556 560 564 568 572 576 580 584 588 592 596 600 604 608 612 616 620 624 628 632 636 640 644 648 652 656 660 664 668 672 676 680 684 688 692 696 700 704 708 712 716 720 724 728 732 736 740 744 748 752 756 760 764 768 772 776 780 784 788 792 796 800 804 808 812 816 820 824 828 832 836 840 844 848 852 856 860 864 868 872 876 880 884 888 892 896 900 904 908 912 916 920 924 928 932 936 940 944 948 952 956 960 964 968 972 976 980 984 988 992 996 1000 1004 1008 1012 1016 1020 1024 1028 1032 1036 1040 1044 1048 1052 1056 1060 1064 1068 1072 1076 1080 1084 1088 1092 1096 1100 1104 1108 1112 1116 1120 1124 1128 1132 1136 1140 1144 1148 1152 1156 1160 1164 1168 1172 1176 1180 1184 1188 1192 1196 1200 1204 1208 1212 1216 1220 1224 1228 1232 1236 1240 1244 1248 1252 1256 1260 1264 1268 1272 1276 1280 1284 1288 1292 1296 1300 1304 1308 1312 1316 1320 1324 1328 1332 1336 1340 1344 1348 1352 1356 1360 1364 1368 1372 1376 1380 1384 1388 1392 1396 1400 1404 1408 1412 1416 1420 1424 1428 1432 1436 1440 1444 1448 1452 1456 1460 1464 1468 1472 1476 1480 1484 1488 1492 1496 1500 1504 1508 1512 1516 1520 1524 1528 1532 1536 1540 1544 1548 1552 1556 1560 1564 1568 1572 1576 1580 1584 1588 1592 1596 1600 1604 1608 1612 1616 1620 1624 1628 1632 1636 1640 1644 1648 1652 1656 1660 1664 1668 1672 </DataArray>
<DataArray  type="UInt8"  Name="types"  format="ascii">10 10 10 10 10 10 10 10 10 10 10 10 10 10 10 10 10 10 10 10 10 10 10 10 10 10 10 10 10 10 10 10 10 10 10 10 10 10 10 10 10 10 10 10 10 10 10 10 10 10 10 10 10 10 10 10 10 10 10 10 10 10 10 10 10 10 10 10 10 10 10 10 10 10 10 10 10 10 10 10 10 10 10 10 10 10 10 10 10 10 10 10 10 10 10 10 10 10 10 10 10 10 10 10 10 10 10 10 10 10 10 10 10 10 10 10 10 10 10 10 10 10 10 10 10 10 10 10 10 10 10 10 10 10 10 10 10 10 10 10 10 10 10 10 10 10 10 10 10 10 10 10 10 10 10 10 10 10 10 10 10 10 10 10 10 10 10 10 10 10 10 10 10 10 10 10 10 10 10 10 10 10 10 10 10 10 10 10 10 10 10 10 10 10 10 10 10 10 10 10 10 10 10 10 10 10 10 10 10 10 10 10 10 10 10 10 10 10 10 10 10 10 10 10 10 10 10 10 10 10 10 10 10 10 10 10 10 10 10 10 10 10 10 10 10 10 10 10 10 10 10 10 10 10 10 10 10 10 10 10 10 10 10 10 10 10 10 10 10 10 10 10 10 10 10 10 10 10 10 10 10 10 10 10 10 10 10 10 10 10 10 10 10 10 10 10 10 10 10 10 10 10 10 10 10 10 10 10 10 10 10 10 10 10 10 10 10 10 10 10 10 10 10 10 10 10 10 10 10 10 10 10 10 10 10 10 10 10 10 10 10 10 10 10 10 10 10 10 10 10 10 10 10 10 10 10 10 10 10 10 10 10 10 10 10 10 10 10 10 10 10 10 10 10 10 10 10 10 10 10 10 10 10 10 10 10 10 10 10 10 10 10 10 10 10 10 10 10 10 10 10 10 10 10 10 10 10 10 10 10 10 10 10 10 10 10 10 10 </DataArray>
</Cells>
<PointData  Vectors="u"> 
<DataArray  type="Float64"  Name="u"  NumberOfComponents="3" format="ascii">2.0000000000014461e+02 5.0067816878939618e-11 2.6005918064811002e-11  1.9999999999978121e+02 -5.1011887920813358e-11 -9.2108510864883891e-12  1.9999999999975108e+02 3.4783609884005108e-12 1.7039529583408398e-11  1.9999999999974358e+02 2.2512131432097473e-12 9.1718769386993365e-12  1.9999999999956876e+02 3.7213183483979042e-11 3.8106026738321808e-12  1.9999999999955850e+02 1.6777371645794582e-12 -1.4632480221363551e-11  1.9999999999956745e+02 8.5555084061220615e-12 5.0715669369089441e-12  2.0000000000001307e+02 -6.2404661908009101e-12 1.2565507241424833e-11  1.9999999999988538e+02 6.4467026031696687e-12 -4.8596404602940502e-13  2.0000000000016234e+02 -7.0363240513956009e-13 2.4376212986732045e-12  1.9999999999975810e+02 7.9085412016798257e-12 1.4785316964600950e-12  1.9999999999955577e+02 -1.2265007550951182e-11 -1.3575660015230211e-11  1.9999999999949350e+02 -3.1320684014805359e-11 -3.6801536671843861e-11  1.9999999999972829e+02 -2.2456182387385469e-11 -1.7840092160738966e-11  1.9999999999954002e+02 4.2661527806593335e-11 4.0714951378720368e-11  1.9999999999955978e+02 1.5067531231783872e-10 2.8902548291973633e-11  1.9999999999954281e+02 -1.0808944926171414e-11 -7.8474396251436404e-12  1.9999999999975623e+02 -3.7184408648914459e-11 -2.6750788780236795e-11  2.0000000000000327e+02 -1.1896062081998436e-11 -5.9789032622543457e-12  1.9999999999992116e+02 -1.6802622967007825e-11 -6.7690324052082782e-12  2.0000000000012790e+02 3.7355534633321254e-11 2.8260445711523598e-11  1.9999999999974543e+02 3.9025807656154691e-11 -1.2720906377080289e-11  1.9999999999932007e+02 -1.6771174275786795e-11 -4.2321474413038545e-11  1.9999999999933502e+02 -3.5776201918965287e-11 -3.0972094472249494e-11  1.9999999999934531e+02 3.7837110459374457e-11 -3.4584420067008529e-11  1.9999999999912075e+02 2.8698876717701787e-11 1.3828596237638986e-11  1.9999999999933792e+02 -5.7773185220877374e-11 -2.5351422215715377e-11  1.9999999999974736e+02 -1.9123358720802582e-11 -1.7329546221065770e-11  1.9999999999956131e+02 -3.8722571361937078e-11 -4.0267277362637556e-11  1.9999999999953025e+02 1.7665976339498440e-12 1.0032696398547368e-11  1.9999999999955227e+02 2.0806832731737593e-11 2.1281254913344524e-11  1.9999999999954193e+02 8.5244053864791127e-12 -2.0744360216423924e-11  1.9999999999976964e+02 -2.7848961868428482e-11 -2.0827224249420608e-11  1.9999999999974415e+02 5.6505176720396275e-12 9.5914463386660494e-12  1.9999999999988671e+02 -1.5827690681587289e-11 -5.8342628344019330e-12  1.9999999999999994e+02 -3.3986025651063665e-12 -1.6937569865007140e-11  2.0000000000013955e+02 1.2173227228142274e-11 2.3664254204012785e-11  1.9999999999975117e+02 -9.6989638846560993e-12 -2.0665000388063387e-11  2.0000000000002032e+02 -6.1657094504305286e-12 1.8771284136004595e-11  1.9999999999932373e+02 -2.2351537819132695e-11 -1.2539141413269991e-11  1.9999999999931168e+02 -1.4098480879948136e-11 -3.7186541577840345e-11  1.9999999999930517e+02 -5.1803640881041734e-11 -2.3634545711687668e-11  1.9999999999974952e+02 -8.0428876463695820e-12 -8.5019320044562565e-12  1.9999999999954537e+02 -8.5431300691219175e-12 -1.7339456508911351e-11  1.9999999999955671e+02 -1.6046739941938542e-11 -3.5774737051855323e-11  1.9999999999956884e+02 -1.8888098209852638e-11 2.8650522028727362e-11  1.9999999999977322e+02 -2.7119580715004090e-11 1.1650625944204717e-11  1.9999999999994498e+02 -1.2317364554507102e-11 2.7848448380091031e-11  2.0000000000000421e+02 -1.0875260509402389e-11 -1.2702248236283332e-11  2.0000000000013134e+02 -5.8409106933252777e-12 2.2272107149308058e-11  1.9999999999974767e+02 -1.0847511905323066e-11 -2.2133788890732480e-11  1.9999999999930969e+02 -1.0689403930443044e-12 -1.4815498927668668e-11  1.9999999999975608e+02 2.6370661516386815e-12 -7.7596274954746276e-13  1.9999999999990388e+02 -1.5365073630101798e-11 -1.1669703326049158e-12  1.9999999999934033e+02 1.3080660816385451e-11 -2.6710613062945549e-11  1.9999999999911830e+02 1.3028731653966698e-10 1.7066231154047998e-11  1.9999999999910062e+02 -2.1794669194691411e-11 -4.2900073933556917e-11  1.9999999999934477e+02 -3.3702804292575929e-11 -1.9956690191278664e-11  1.9999999999913226e+02 -3.0615703670558695e-11 -7.0248020227539044e-11  1.9999999999912114e+02 -8.4491363355080085e-12 -1.2472247612640241e-11  1.9999999999911338e+02 3.8766458471478470e-11 2.3457835307833672e-11  1.9999999999935184e+02 -9.4595149368489950e-11 -2.3530406792612254e-11  1.9999999999910986e+02 1.5080972171302352e-11 -3.3040884864942141e-11  1.9999999999911404e+02 1.4050832599022727e-10 2.3119073170029487e-11  1.9999999999912438e+02 -1.6099977296980562e-11 7.7931934934615137e-13  1.9999999999960278e+02 -1.5502206471028886e-11 -7.9270253813585436e-12  1.9999999999952718e+02 1.6190738243147130e-10 2.8721996175597097e-11  1.9999999999935696e+02 -2.6462279106314912e-11 -3.5208028651494197e-11  1.9999999999934215e+02 9.4994523462864744e-12 -1.6393714999392051e-11  1.9999999999935230e+02 -1.3077942147393264e-11 -1.8937801816272102e-11  1.9999999999957163e+02 -3.7233143580499232e-11 -2.7519235318231794e-11  1.9999999999955656e+02 -2.2498311496334014e-11 2.3825460324388440e-12  1.9999999999953485e+02 4.3688976065775137e-11 2.0932190178926126e-11  1.9999999999933331e+02 4.8822425543983324e-12 -7.3521415408181590e-12  1.9999999999956609e+02 -1.7686824333315534e-11 1.8584201336094361e-12  1.9999999999892319e+02 -2.8560312833049787e-11 -1.2820764742383033e-11  1.9999999999890628e+02 -9.9891397930537892e-11 -1.6418809386577748e-11  1.9999999999893618e+02 1.2951563906772826e-12 -1.8123732430237628e-12  1.9999999999892515e+02 2.0215489131127979e-11 -2.0580880623936671e-11  1.9999999999891662e+02 -1.7233267443194539e-11 -1.6709622543685390e-11  1.9999999999934238e+02 -1.1532741462539569e-11 4.8600624114690332e-12  1.9999999999890454e+02 -6.0312136306686818e-12 -7.1369815283354667e-12  1.9999999999935233e+02 -2.5199491706911086e-11 -9.1886255310912478e-13  1.9999999999913413e+02 1.6220391851328402e-11 -1.9398015441221977e-11  1.9999999999911350e+02 2.2455174004498191e-11 1.9183065211919796e-11  1.9999999999910818e+02 3.0527303764915462e-11 -1.2557752596113931e-10  1.9999999999935633e+02 -8.3033483623864204e-11 1.5858802710687149e-11  1.9999999999911583e+02 5.9817136280954670e-12 1.6714015286230138e-11  1.9999999999911668e+02 1.3001484205827398e-10 -1.3141930361961193e-10  1.9999999999913095e+02 -4.7619066355351269e-12 3.0061789988711758e-12  1.9999999999956910e+02 -8.2582239188000589e-12 3.6559180107128728e-12  1.9999999999953155e+02 1.5645037631992071e-10 -1.2377727907795882e-10  1.9999999999933632e+02 -3.3240059186670749e-11 6.6963631296377563e-11  1.9999999999933962e+02 2.1064104996485362e-11 7.5148548470954550e-12  1.9999999999934721e+02 -5.2557043416623118e-12 -7.4154210488709471e-12  1.9999999999955813e+02 -4.5586210602732195e-11 -1.4133269365394680e-11  1.9999999999956930e+02 -1.6849217470498900e-11 2.0665918921699498e-11  1.9999999999952712e+02 3.3291759704724106e-11 -1.2668280688179888e-10  1.9999999999935392e+02 2.8126371348629822e-11 1.1152750568429595e-12  1.9999999999956879e+02 -1.1041733065180719e-11 7.8420678530683250e-12  1.9999999999891588e+02 -1.9046976580855516e-11 9.5379339922878896e-12  1.9999999999890656e+02 -9.8156864290442732e-11 1.3620471343954497e-11  1.9999999999892427e+02 -3.2882999142166181e-11 6.8394174379309255e-11  1.9999999999892478e+02 2.9320309060564458e-11 1.3806547987398994e-11  1.9999999999934005e+02 -2.4255110921699433e-11 2.9801581029568506e-12  2.0000000000013290e+02 1.5724527530105173e-10 2.4760021879717279e-11  1.9999999999976444e+02 -2.1525526047169494e-11 1.2980446062385912e-11  1.9999999999975037e+02 -1.4080224607801095e-11 -2.3830932256183815e-11  2.0000000000000219e+02 -1.0605800909549910e-11 -1.3258870652931669e-11  1.9999999999976501e+02 -1.4930162403241841e-11 -7.8635733443586206e-12  1.9999999999972999e+02 -9.6903941668956926e-11 1.0115950175513079e-11  2.0000000000001361e+02 -7.8531638509215243e-12 -1.6860873274833580e-12  2.0000000000012847e+02 1.3463544938056847e-10 2.2532716960264156e-11  1.9999999999979272e+02 -3.2756734205176975e-11 -2.5927300139170534e-11  1.9999999999976248e+02 2.5947104456816329e-11 -7.9861022575311016e-12  1.9999999999978684e+02 -4.5287050848458589e-12 -1.6712349605227250e-11  1.9999999999991235e+02 -2.2765910000605716e-11 -1.9496674365969854e-11  1.9999999999998488e+02 -1.9275719531196795e-11 -1.3033327034654173e-11  2.0000000000013239e+02 3.8941397944405943e-11 2.3804934319314509e-11  1.9999999999976146e+02 1.0426576806258309e-11 -1.7933914433253295e-11  1.9999999999999415e+02 -2.4977803471897068e-11 -1.6765409806958848e-11  1.9999999999975788e+02 -2.3148073548442616e-11 -9.9355596846898974e-12  1.9999999999957350e+02 -3.0027601742538804e-11 -1.5187037486702617e-11  1.9999999999991539e+02 -3.7658943867751013e-12 -9.1146829026355705e-12  1.9999999999977177e+02 -2.3042594743905258e-11 -2.0923247715239472e-12  1.9999999999973957e+02 -1.0712565408956522e-10 1.2056622514656612e-11  2.0000000000001953e+02 6.7501509321491120e-12 4.9322520998782483e-12  2.0000000000011840e+02 1.2947243514564891e-10 -1.3567062968425727e-10  1.9999999999977317e+02 -2.4466970847941592e-11 8.0669307282772815e-11  1.9999999999977274e+02 1.7722301932587881e-11 8.0368784171308328e-12  1.9999999999990888e+02 -3.1233249225709452e-11 4.1219218496090406e-12  1.9999999999999272e+02 -1.5416011416676745e-11 1.9214141026193760e-11  </DataArray> 
</PointData> 
</Piece>
</UnstructuredGrid>
</VTKFile>