<?xml version="1.0"?>
<VTKFile type="UnstructuredGrid"  version="0.1"  >
<UnstructuredGrid>
<Piece  NumberOfPoints="127" NumberOfCells="404">
<Points>
<DataArray  type="Float64"  NumberOfComponents="3"  format="ascii">20 10 30  20 15 30  15 15 30  15 15 25  20 20 30  10 20 30  15 20 30  15 20 25  20 20 20  20 25 25  20 20 25  15 25 25  20 25 30  15 25 30  10 25 30  10 30 30  25 25 25  25 20 25  25 25 30  25 20 30  30 20 30  30 25 30  10 25 35  5 25 35  10 30 35  10 30 40  0 30 30  0 30 35  0 25 35  0 30 40  15 25 35  20 25 35  25 25 35  20 15 25  25 15 30  25 15 25  20 15 35  15 15 35  20 20 35  20 20 40  20 10 35  20 10 40  20 15 40  10 10 40  15 15 40  15 10 40  25 15 35  25 20 35  25 15 40  25 20 40  30 20 40  25 25 40  20 25 40  20 30 40  15 15 45  20 15 45  20 20 45  20 20 50  20 10 45  20 10 50  20 15 50  10 10 50  15 15 50  15 10 50  25 15 45  25 20 45  25 15 50  25 25 45  10 20 35  10 15 35  5 15 35  10 20 40  10 15 40  0 10 40  5 15 40  5 10 40  0 20 30  5 20 35  5 20 30  0 15 40  0 15 35  0 20 40  5 20 40  0 20 35  15 20 35  15 20 40  10 25 40  5 25 40  0 25 40  15 25 40  5 10 45  5 5 45  10 10 45  0 10 50  5 10 50  5 5 50  0 5 50  0 5 45  0 10 45  5 15 45  10 15 45  10 20 45  10 20 50  10 15 50  5 15 50  5 20 45  0 15 45  0 15 50  0 20 50  5 20 50  0 20 45  15 20 45  15 20 50  5 25 45  10 25 45  10 30 45  10 30 50  10 25 50  5 25 50  0 25 45  0 25 50  0 30 50  5 30 50  0 30 45  15 25 45  20 25 45  15 25 50  </DataArray>
</Points>
<Cells>
<DataArray  type="UInt32"  Name="connectivity"  format="ascii">0 3 2 1  4 3 2 1  5 3 2 6  4 3 2 6  5 3 7 6  4 3 7 6  8 11 10 9  8 7 11 10  4 11 9 12  4 11 10 9  4 7 11 10  5 11 6 13  5 7 11 6  4 11 13 12  4 11 6 13  4 7 11 6  5 11 14 13  15 11 14 13  8 17 16 10  4 16 19 18  4 17 16 19  4 17 16 10  20 21 16 18  20 16 19 18  20 17 16 19  8 16 10 9  4 16 12 18  4 16 9 12  4 16 10 9  5 14 22 23  15 24 22 23  15 14 22 23  25 24 22 23  26 27 23 28  29 27 23 28  5 6 13 30  4 30 12 31  4 13 30 12  4 6 13 30  5 14 13 30  15 14 13 30  5 14 22 30  15 24 22 30  15 14 22 30  25 24 22 30  4 19 18 32  20 21 18 32  20 19 18 32  4 12 18 32  4 12 31 32  8 3 10 33  4 3 10 33  0 3 1 33  4 3 1 33  8 3 7 10  4 3 7 10  0 35 1 34  0 35 1 33  4 35 19 34  4 35 1 34  4 35 1 33  20 35 19 34  8 35 17 10  8 35 10 33  4 35 17 19  4 35 17 10  4 35 10 33  20 35 17 19  0 1 36 37  0 2 1 37  4 36 37 38  4 1 36 37  4 2 1 37  39 36 37 38  0 40 36 37  41 36 42 37  41 40 36 37  39 36 42 37  43 45 37 44  41 42 37 44  41 45 37 44  39 42 37 44  0 1 34 46  4 19 46 47  4 19 34 46  4 1 34 46  20 19 46 47  20 19 34 46  0 40 36 46  41 46 42 48  41 36 46 42  41 40 36 46  39 46 48 49  39 46 42 48  39 36 46 42  50 46 48 49  0 1 36 46  4 46 38 47  4 36 46 38  4 1 36 46  39 46 47 49  39 46 38 47  39 36 46 38  50 46 47 49  4 19 32 47  20 19 32 47  4 32 38 47  39 32 49 51  39 32 47 49  39 32 38 47  50 32 49 51  50 32 47 49  4 31 32 38  39 32 51 52  39 31 32 52  39 31 32 38  53 32 51 52  53 31 32 52  43 45 44 54  41 42 55 54  41 42 44 54  41 45 44 54  39 55 54 56  39 42 55 54  39 42 44 54  57 55 54 56  41 58 55 54  59 55 54 60  59 58 55 54  57 55 54 60  61 54 63 62  59 54 60 62  59 54 63 62  57 54 60 62  41 42 48 64  39 64 49 65  39 48 64 49  39 42 48 64  50 64 49 65  50 48 64 49  41 58 55 64  59 64 60 66  59 55 64 60  59 58 55 64  57 64 60 66  57 55 64 60  41 42 55 64  39 64 56 65  39 55 64 56  39 42 55 64  57 64 56 65  57 55 64 56  39 49 51 67  50 49 51 67  39 49 65 67  50 49 65 67  39 56 65 67  57 56 65 67  39 51 52 67  53 51 52 67  5 69 70 68  71 69 70 68  43 69 70 72  71 69 70 72  73 70 75 74  43 70 72 74  43 70 75 74  71 70 72 74  76 78 70 77  5 70 68 77  5 78 70 77  71 70 68 77  73 70 74 79  73 70 80 79  81 70 74 82  81 70 74 79  81 70 80 79  71 70 74 82  76 70 77 83  76 70 80 83  81 70 77 82  81 70 77 83  81 70 80 83  71 70 77 82  5 6 37 84  5 2 6 37  4 37 38 84  4 6 37 84  4 2 6 37  39 37 38 84  43 37 44 72  43 37 69 72  71 37 44 85  71 37 44 72  71 37 69 72  39 37 44 85  5 37 68 84  5 37 69 68  71 37 84 85  71 37 68 84  71 37 69 68  39 37 84 85  76 78 23 77  5 22 23 68  5 23 68 77  5 78 23 77  71 22 23 86  71 22 23 68  71 23 68 77  25 22 23 86  76 23 77 83  81 23 82 87  81 23 77 82  81 23 77 83  71 23 86 87  71 23 82 87  71 23 77 82  25 23 86 87  76 23 28 83  81 23 87 88  81 23 28 88  81 23 28 83  29 23 87 88  29 23 28 88  5 6 30 84  4 30 31 38  4 30 38 84  4 6 30 84  39 30 31 52  39 30 31 38  39 30 38 84  53 30 31 52  5 30 68 84  71 30 85 89  71 30 84 85  71 30 68 84  39 30 52 89  39 30 85 89  39 30 84 85  53 30 52 89  5 22 30 68  71 30 86 89  71 22 30 86  71 22 30 68  25 30 86 89  25 22 30 86  73 75 91 90  43 92 91 90  43 75 91 90  61 92 91 90  93 91 95 94  93 91 95 96  93 91 97 96  61 91 95 94  73 91 90 98  73 91 97 98  93 91 90 94  93 91 90 98  93 91 97 98  61 91 90 94  73 75 74 99  43 72 100 99  43 72 74 99  43 75 74 99  71 100 99 101  71 72 100 99  71 72 74 99  102 100 99 101  73 75 90 99  43 92 100 99  43 92 90 99  43 75 90 99  61 100 99 103  61 92 100 99  61 92 90 99  102 100 99 103  73 90 98 99  93 99 94 104  93 90 99 94  93 90 98 99  61 99 103 104  61 99 94 104  61 90 99 94  102 99 103 104  73 74 79 99  81 99 82 105  81 74 99 82  81 74 79 99  71 99 101 105  71 99 82 105  71 74 99 82  102 99 101 105  73 98 99 106  93 99 104 107  93 99 106 107  93 98 99 106  108 99 104 109  108 99 104 107  108 99 106 107  102 99 104 109  73 79 99 106  81 99 105 110  81 99 106 110  81 79 99 106  108 99 105 109  108 99 105 110  108 99 106 110  102 99 105 109  43 44 54 72  71 54 85 111  71 44 54 85  71 44 54 72  39 54 56 111  39 54 85 111  39 44 54 85  57 54 56 111  43 92 54 100  61 54 62 103  61 54 100 103  61 92 54 100  102 54 62 112  102 54 62 103  102 54 100 103  57 54 62 112  43 54 72 100  71 54 101 111  71 54 100 101  71 54 72 100  102 54 111 112  102 54 101 111  102 54 100 101  57 54 111 112  81 82 87 113  71 86 114 113  71 86 87 113  71 82 87 113  25 115 114 113  25 86 114 113  25 86 87 113  116 115 114 113  81 82 105 113  71 101 114 113  71 101 105 113  71 82 105 113  102 114 113 117  102 101 114 113  102 101 105 113  116 114 113 117  81 105 110 113  108 113 109 118  108 105 113 109  108 105 110 113  102 113 117 118  102 113 109 118  102 105 113 109  116 113 117 118  81 87 88 113  29 87 88 113  81 110 113 119  108 113 118 120  108 113 119 120  108 110 113 119  121 122 113 118  121 113 118 120  121 113 119 120  116 122 113 118  81 88 113 119  29 123 113 119  29 88 113 119  121 123 113 119  71 85 89 124  39 52 124 125  39 52 89 124  39 85 89 124  53 52 124 125  53 52 89 124  71 85 111 124  39 56 124 125  39 56 111 124  39 85 111 124  57 56 124 125  57 56 111 124  71 101 111 124  102 124 112 126  102 111 124 112  102 101 111 124  57 124 112 126  57 111 124 112  71 86 89 124  25 86 89 124  71 101 114 124  102 124 117 126  102 114 124 117  102 101 114 124  116 124 117 126  116 114 124 117  71 86 114 124  25 115 114 124  25 86 114 124  116 115 114 124  39 56 67 125  57 56 67 125  39 52 67 125  53 52 67 125  </DataArray>
<DataArray  type="UInt32"  Name="offsets"  format="ascii">4 8 12 16 20 24 28 32 36 40 44 48 52 56 60 64 68 72 76 80 84 88 92 96 100 104 108 112 116 120 124 128 132 136 140 144 148 152 156 160 164 168 172 176 180 184 188 192 196 200 204 208 212 216 220 224 228 232 236 240 244 248 252 256 260 264 268 272 276 280 284 288 292 296 300 304 308 312 316 320 324 328 332 336 340 344 348 352 356 360 364 368 372 376 380 384 388 392 396 400 404 408 412 416 420 424 428 432 436 440 444 448 452 456 460 464 468 472 476 480 484 488 492 496 500 504 508 512 516 520 524 528 532 536 540 544 548 552 556 560 564 568 572 576 580 584 588 592 596 600 604 608 612 616 620 624 628 632 636 640 644 648 652 656 660 664 668 672 676 680 684 688 692 696 700 704 708 712 716 720 724 728 732 736 740 744 748 752 756 760 764 768 772 776 780 784 788 792 796 800 804 808 812 816 820 824 828 832 836 840 844 848 852 856 860 864 868 872 876 880 884 888 892 896 900 904 908 912 916 920 924 928 932 936 940 944 948 952 956 960 964 968 972 976 980 984 988 992 996 1000 1004 1008 1012 1016 1020 1024 1028 1032 1036 1040 1044 1048 1052 1056 1060 1064 1068 1072 1076 1080 1084 1088 1092 1096 1100 1104 1108 1112 1116 1120 1124 1128 1132 1136 1140 1144 1148 1152 1156 1160 1164 1168 1172 1176 1180 1184 1188 1192 1196 1200 1204 1208 1212 1216 1220 1224 1228 1232 1236 1240 1244 1248 1252 1256 1260 1264 1268 1272 1276 1280 1284 1288 1292 1296 1300 1304 1308 1312 1316 1320 1324 1328 1332 1336 1340 1344 1348 1352 1356 1360 1364 1368 1372 1376 1380 1384 1388 1392 1396 1400 1404 1408 1412 1416 1420 1424 1428 1432 1436 1440 1444 1448 1452 1456 1460 1464 1468 1472 1476 1480 1484 1488 1492 1496 1500 1504 1508 1512 1516 1520 1524 1528 1532 1536 1540 1544 1548 1552 1556 1560 1564 1568 1572 1576 1580 1584 1588 1592 1596 1600 1604 1608 1612 1616 </DataArray>
<DataArray  type="UInt8"  Name="types"  format="ascii">10 10 10 10 10 10 10 10 10 10 10 10 10 10 10 10 10 10 10 10 10 10 10 10 10 10 10 10 10 10 10 10 10 10 10 10 10 10 10 10 10 10 10 10 10 10 10 10 10 10 10 10 10 10 10 10 10 10 10 10 10 10 10 10 10 10 10 10 10 10 10 10 10 10 10 10 10 10 10 10 10 10 10 10 10 10 10 10 10 10 10 10 10 10 10 10 10 10 10 10 10 10 10 10 10 10 10 10 10 10 10 10 10 10 10 10 10 10 10 10 10 10 10 10 10 10 10 10 10 10 10 10 10 10 10 10 10 10 10 10 10 10 10 10 10 10 10 10 10 10 10 10 10 10 10 10 10 10 10 10 10 10 10 10 10 10 10 10 10 10 10 10 10 10 10 10 10 10 10 10 10 10 10 10 10 10 10 10 10 10 10 10 10 10 10 10 10 10 10 10 10 10 10 10 10 10 10 10 10 10 10 10 10 10 10 10 10 10 10 10 10 10 10 10 10 10 10 10 10 10 10 10 10 10 10 10 10 10 10 10 10 10 10 10 10 10 10 10 10 10 10 10 10 10 10 10 10 10 10 10 10 10 10 10 10 10 10 10 10 10 10 10 10 10 10 10 10 10 10 10 10 10 10 10 10 10 10 10 10 10 10 10 10 10 10 10 10 10 10 10 10 10 10 10 10 10 10 10 10 10 10 10 10 10 10 10 10 10 10 10 10 10 10 10 10 10 10 10 10 10 10 10 10 10 10 10 10 10 10 10 10 10 10 10 10 10 10 10 10 10 10 10 10 10 10 10 10 10 10 10 10 10 10 10 10 10 10 10 10 10 10 10 10 10 10 10 10 10 10 10 10 10 10 10 10 10 10 10 10 10 10 10 10 10 10 10 10 10 10 10 10 10 10 10 </DataArray>
</Cells>
<PointData  Vectors="u"> 
<DataArray  type="Float64"  Name="u"  NumberOfComponents="3" format="ascii">1.9999999999912075e+02 2.8698876717701787e-11 1.3828596237638986e-11  1.9999999999910426e+02 6.0957592818428232e-12 -3.1024798555957018e-11  1.9999999999931168e+02 -1.4098480879948136e-11 -3.7186541577840345e-11  1.9999999999932373e+02 -2.2351537819132695e-11 -1.2539141413269991e-11  1.9999999999911822e+02 1.3988509422125681e-11 2.1929327589391294e-11  1.9999999999955227e+02 2.0806832731737593e-11 2.1281254913344524e-11  1.9999999999933766e+02 -1.4331032472143438e-11 -3.0066137747126414e-11  1.9999999999930517e+02 -5.1803640881041734e-11 -2.3634545711687668e-11  1.9999999999910045e+02 2.7921401930297860e-12 3.3930277060772209e-12  1.9999999999910725e+02 -1.2194664177404654e-12 3.2195789738885485e-12  1.9999999999911691e+02 6.3557814360747026e-12 -1.5423148675600877e-12  1.9999999999930969e+02 -1.0689403930443044e-12 -1.4815498927668668e-11  1.9999999999909394e+02 -1.1858363221543244e-12 -1.0432360847724316e-12  1.9999999999931023e+02 1.1710772568949452e-11 -2.9260117264594955e-11  1.9999999999955671e+02 -1.6046739941938542e-11 -3.5774737051855323e-11  1.9999999999956884e+02 -1.8888098209852638e-11 2.8650522028727362e-11  1.9999999999893870e+02 -1.8795570474986198e-11 -1.0449894365631114e-12  1.9999999999892927e+02 -3.4378669672977418e-11 -2.5710505730661694e-11  1.9999999999890065e+02 6.1925278237668010e-12 1.5509868914474961e-11  1.9999999999891182e+02 2.2438741367186938e-12 -2.3176425151818893e-11  1.9999999999868425e+02 1.4714054514121603e-11 8.1128720870250828e-12  1.9999999999873154e+02 -7.4346221495699870e-12 1.5846681545464366e-11  1.9999999999954090e+02 5.0268181480202283e-11 -3.9568032224615545e-11  1.9999999999975608e+02 2.6370661516386815e-12 -7.7596274954746276e-13  1.9999999999953448e+02 1.5364978599591574e-11 -9.8735180968367004e-12  1.9999999999955287e+02 -2.9324109154630438e-11 3.2312818470641755e-11  2.0000000000013134e+02 -5.8409106933252777e-12 2.2272107149308058e-11  2.0000000000001273e+02 2.7361954061545963e-11 -1.8077400410702724e-11  1.9999999999990388e+02 -1.5365073630101798e-11 -1.1669703326049158e-12  2.0000000000015194e+02 -2.7387876581540141e-11 3.0358892032329617e-11  1.9999999999931603e+02 1.4191902557240982e-11 -7.6685311157330202e-12  1.9999999999907905e+02 2.2943913405415572e-11 -3.2903717652636040e-11  1.9999999999889499e+02 2.1671646358316328e-11 -1.0786181646891837e-11  1.9999999999912339e+02 -1.1307432563290135e-11 -1.5583921692757257e-11  1.9999999999891804e+02 1.8807519202956731e-12 -1.3327011270356358e-11  1.9999999999893146e+02 -1.8051313957279673e-11 -4.1006801182137989e-12  1.9999999999911219e+02 -4.8288975721491363e-11 -5.4248737390261507e-11  1.9999999999934238e+02 -1.1532741462539569e-11 4.8600624114690332e-12  1.9999999999912148e+02 2.0083063427756899e-11 -1.5500406695867755e-11  1.9999999999910801e+02 1.8898353518278559e-11 1.8789761740448358e-11  1.9999999999912114e+02 -8.4491363355080085e-12 -1.2472247612640241e-11  1.9999999999911338e+02 3.8766458471478470e-11 2.3457835307833672e-11  1.9999999999913217e+02 1.4937891430531084e-12 -2.2553496489941327e-11  1.9999999999953485e+02 4.3688976065775137e-11 2.0932190178926126e-11  1.9999999999935588e+02 -2.9303228542421167e-11 -2.6975775254254687e-11  1.9999999999933331e+02 4.8822425543983324e-12 -7.3521415408181590e-12  1.9999999999890454e+02 -6.0312136306686818e-12 -7.1369815283354667e-12  1.9999999999891736e+02 1.9826630826435857e-11 -2.1987479503432655e-12  1.9999999999892194e+02 -2.5277987728349658e-11 -1.4672011683490542e-11  1.9999999999892157e+02 -1.8520909959647816e-11 -1.0473394621382700e-11  1.9999999999866213e+02 1.0144622260889809e-11 1.9793821434913771e-11  1.9999999999892754e+02 9.6271785092570523e-12 -1.1878045451943721e-12  1.9999999999914058e+02 -1.2731475053703690e-12 -2.7791690469485335e-11  1.9999999999913146e+02 -8.1281425726604780e-12 1.2520011600442153e-11  1.9999999999934005e+02 -2.4255110921699433e-11 2.9801581029568506e-12  1.9999999999912345e+02 -4.0173207230143837e-11 -1.6149997760817164e-11  1.9999999999911577e+02 -1.5396279482729969e-11 -2.0827808070584988e-12  1.9999999999911392e+02 2.1386443587639019e-11 -1.0771486732430116e-10  1.9999999999911350e+02 2.2455174004498191e-11 1.9183065211919796e-11  1.9999999999910818e+02 3.0527303764915462e-11 -1.2557752596113931e-10  1.9999999999911810e+02 1.2649549250706997e-12 2.7626357581864526e-12  1.9999999999952712e+02 3.3291759704724106e-11 -1.2668280688179888e-10  1.9999999999933394e+02 -4.0219395162619050e-12 5.0726924850624537e-11  1.9999999999935392e+02 2.8126371348629822e-11 1.1152750568429595e-12  1.9999999999890846e+02 -1.0616445696011963e-11 1.2842268385619590e-11  1.9999999999892472e+02 -1.4919716014493050e-11 9.9018878735045184e-12  1.9999999999891557e+02 6.5548211783059586e-12 6.6820678608744985e-11  1.9999999999890323e+02 -1.2991671572974096e-11 1.3852609867571192e-11  1.9999999999954474e+02 2.3117087066134521e-13 -5.4459323334465881e-12  1.9999999999957350e+02 -3.0027601742538804e-11 -1.5187037486702617e-11  1.9999999999975788e+02 -2.3148073548442616e-11 -9.9355596846898974e-12  1.9999999999954335e+02 1.8048432495269982e-11 2.0195060145083838e-11  1.9999999999956023e+02 -6.8320712441687627e-12 -6.5440110118463761e-12  2.0000000000013239e+02 3.8941397944405943e-11 2.3804934319314509e-11  1.9999999999977626e+02 -1.7933744573874847e-11 -4.3735227910111240e-11  1.9999999999976146e+02 1.0426576806258309e-11 -1.7933914433253295e-11  2.0000000000013955e+02 1.2173227228142274e-11 2.3664254204012785e-11  1.9999999999973699e+02 1.0781967595665123e-11 7.3081486810714105e-12  1.9999999999975117e+02 -9.6989638846560993e-12 -2.0665000388063387e-11  2.0000000000000614e+02 -1.7061137411605943e-11 -1.6196372819585627e-11  1.9999999999991539e+02 -3.7658943867751013e-12 -9.1146829026355705e-12  2.0000000000013847e+02 1.9227497903135125e-11 1.8127615379824651e-11  1.9999999999975984e+02 -1.4761838362699367e-11 -1.2078017190020999e-11  2.0000000000000705e+02 1.5696291006393168e-11 -1.9063647809553951e-11  1.9999999999933067e+02 2.4049105516564494e-12 -6.5083623704964694e-12  1.9999999999933615e+02 -6.2842645441524368e-12 -5.6780246611237806e-12  1.9999999999954133e+02 -5.9673236216569410e-13 -2.1195840927603387e-11  1.9999999999976745e+02 -9.6194750883618537e-13 -3.6087837038640309e-12  2.0000000000001910e+02 -5.2017839109261499e-12 -2.9050240156630632e-11  1.9999999999932828e+02 -4.2449902121781962e-12 2.0110607878484054e-11  1.9999999999977891e+02 -1.8567903948901181e-11 6.3831101037073614e-13  1.9999999999977177e+02 -2.3042594743905258e-11 -2.0923247715239472e-12  1.9999999999956879e+02 -1.1041733065180719e-11 7.8420678530683250e-12  2.0000000000012503e+02 5.0299874885315882e-11 -1.4261888911219531e-10  1.9999999999977902e+02 1.8519151333402014e-11 1.3077347349599475e-11  1.9999999999977317e+02 -2.4466970847941592e-11 8.0669307282772815e-11  1.9999999999999272e+02 -1.5416011416676745e-11 1.9214141026193760e-11  1.9999999999990888e+02 -3.1233249225709452e-11 4.1219218496090406e-12  2.0000000000000031e+02 -7.4721523880345558e-12 1.3942868472895867e-11  1.9999999999975202e+02 -3.0229968160028859e-11 5.7960283679622560e-13  1.9999999999959107e+02 -2.5835815153842374e-11 -1.6924019199329531e-12  1.9999999999954446e+02 -2.6752327298130663e-11 1.0297032014509703e-11  1.9999999999954773e+02 2.3511439875471819e-11 -1.3160355583141136e-10  1.9999999999954721e+02 -5.3490986158235954e-12 -1.9670626227387017e-11  1.9999999999973468e+02 -5.0558032779677938e-12 4.9826348060191008e-11  1.9999999999976436e+02 -4.6203762926031946e-11 1.9029363544778525e-12  1.9999999999989973e+02 -1.8783462431133431e-11 2.1379199856323030e-11  2.0000000000001444e+02 -2.2665402893962034e-11 1.0814380688196911e-11  2.0000000000013824e+02 2.3568772870165284e-11 -1.3221271001857184e-10  1.9999999999975452e+02 2.0625752564715578e-11 5.5211263799468477e-12  2.0000000000000708e+02 -2.0352978895874104e-11 1.3856333156819955e-11  1.9999999999933186e+02 -1.1050286122188041e-11 6.4297170845062865e-12  1.9999999999933965e+02 2.8354821970768445e-11 -1.9583046024518043e-11  1.9999999999974787e+02 -7.5737028742515861e-12 9.3504758555676400e-12  1.9999999999954701e+02 -6.8435552104032264e-12 -1.6487545734342702e-11  1.9999999999954696e+02 1.1594417384990728e-11 1.0098352648900406e-11  1.9999999999954866e+02 -2.4532086674169270e-11 -1.3584579887804766e-10  1.9999999999955728e+02 4.1218659766496272e-13 -4.0375452089138759e-11  1.9999999999972277e+02 -9.9457044783347072e-12 8.9068174196859914e-11  1.9999999999989143e+02 -1.1813596171604950e-11 2.9659256730657819e-11  2.0000000000002814e+02 -7.8735519330254424e-12 -1.0282189119825840e-11  2.0000000000014046e+02 -3.2576612366393631e-11 -1.3330492983514020e-10  1.9999999999975915e+02 2.8405870375053447e-11 1.0525171630139367e-11  2.0000000000000469e+02 2.2496194483021327e-11 1.0475519974823573e-11  1.9999999999931958e+02 -1.1287095493761248e-11 1.4136505089205850e-11  1.9999999999912509e+02 -1.8804748743558602e-14 2.4325107826181357e-11  1.9999999999933164e+02 -8.7527156911640077e-12 6.8467291666616252e-11  </DataArray> 
</PointData> 
</Piece>
</UnstructuredGrid>
</VTKFile>