<?xml version="1.0"?>
<VTKFile type="UnstructuredGrid"  version="0.1"  >
<UnstructuredGrid>
<Piece  NumberOfPoints="127" NumberOfCells="388">
<Points>
<DataArray  type="Float64"  NumberOfComponents="3"  format="ascii">20 0 10  25 5 15  25 0 15  20 0 15  20 0 20  25 5 20  25 0 20  30 0 20  20 5 15  20 5 20  20 10 20  20 5 10  20 10 10  20 10 15  25 5 25  25 0 25  30 0 25  30 0 30  0 0 10  5 5 15  5 0 15  0 0 15  0 0 20  5 5 20  5 0 20  10 0 20  10 5 20  10 10 20  0 5 15  0 5 20  0 10 20  5 10 20  0 5 10  0 10 10  5 10 15  0 10 15  5 15 15  5 15 10  0 15 10  0 20 10  0 15 15  5 5 25  10 5 25  5 0 25  10 0 25  10 0 30  0 5 25  15 5 25  0 0 0  5 5 5  5 5 0  5 0 0  10 0 0  10 5 5  10 5 0  10 10 0  10 10 5  10 10 10  5 0 5  10 0 5  10 0 10  10 5 10  0 0 5  5 5 10  5 0 10  0 5 0  0 10 0  5 10 5  5 10 0  0 5 5  5 10 10  0 10 5  15 5 5  15 0 5  15 5 10  15 0 10  15 5 0  15 10 5  15 10 0  20 10 0  20 10 5  15 10 10  5 15 5  5 15 0  10 15 5  10 15 0  10 20 0  10 20 5  10 20 10  10 15 10  0 15 0  0 15 5  15 15 5  15 15 0  15 15 10  10 5 15  10 10 15  10 0 15  15 5 15  15 0 15  15 5 20  15 0 20  15 10 15  15 10 20  10 15 15  15 15 15  15 15 20  20 5 25  20 10 25  20 10 30  15 0 25  20 0 25  20 0 30  20 5 30  15 0 30  15 10 25  25 5 30  25 10 25  15 15 25  20 15 25  25 15 25  25 0 30  25 5 35  25 0 35  0 0 25  0 0 30  5 0 30  </DataArray>
</Points>
<Cells>
<DataArray  type="UInt32"  Name="connectivity"  format="ascii">0 1 2 3  4 1 5 6  4 1 2 6  4 1 2 3  7 1 5 6  7 1 2 6  0 1 3 8  4 1 5 9  4 1 8 9  4 1 3 8  10 1 5 9  10 1 8 9  0 11 1 8  12 13 1 8  12 11 1 8  10 13 1 8  4 5 6 14  7 5 6 14  4 6 14 15  7 16 14 15  7 6 14 15  17 16 14 15  4 5 9 14  10 5 9 14  18 21 20 19  22 19 24 23  22 20 19 24  22 21 20 19  25 19 23 26  25 19 24 23  25 20 19 24  27 19 23 26  18 21 19 28  22 19 23 29  22 19 28 29  22 21 19 28  30 19 23 31  30 19 23 29  30 19 28 29  27 19 23 31  18 19 28 32  33 19 34 35  33 19 28 35  33 19 28 32  30 19 31 34  30 19 34 35  30 19 28 35  27 19 31 34  33 34 35 36  30 31 34 36  30 34 35 36  27 31 34 36  33 36 38 37  39 36 38 37  33 35 36 40  30 35 36 40  33 36 38 40  39 36 38 40  22 24 23 41  25 41 26 42  25 23 41 26  25 24 23 41  27 41 26 42  27 23 41 26  22 24 41 43  25 41 42 44  25 41 43 44  25 24 41 43  45 41 42 44  45 41 43 44  22 23 29 41  30 23 41 31  30 23 29 41  27 23 41 31  22 29 41 46  30 29 41 46  25 42 44 47  45 42 44 47  25 26 42 47  27 26 42 47  48 51 50 49  52 49 54 53  52 50 49 54  52 51 50 49  55 49 53 56  55 49 54 53  55 50 49 54  57 49 53 56  48 51 49 58  52 49 53 59  52 49 58 59  52 51 49 58  60 49 53 61  60 49 53 59  60 49 58 59  57 49 53 61  48 49 58 62  18 49 63 64  18 49 58 64  18 49 58 62  60 49 61 63  60 49 63 64  60 49 58 64  57 49 61 63  48 50 49 65  66 49 68 67  66 50 49 68  66 50 49 65  55 49 56 67  55 49 68 67  55 50 49 68  57 49 56 67  48 49 62 69  18 32 49 63  18 32 49 69  18 49 62 69  33 49 63 70  33 32 49 63  33 32 49 69  57 49 63 70  48 49 65 69  66 49 67 71  66 49 69 71  66 49 65 69  33 49 67 70  33 49 67 71  33 49 69 71  57 49 67 70  52 72 73 59  60 72 75 74  60 72 73 75  60 72 73 59  0 72 11 74  0 72 75 74  0 72 73 75  12 72 11 74  52 76 72 54  55 72 77 78  55 76 72 78  55 76 72 54  79 72 80 77  79 72 77 78  79 76 72 78  12 72 80 77  52 72 53 59  60 72 61 74  60 72 53 61  60 72 53 59  57 72 81 74  57 72 61 74  57 72 53 61  12 72 81 74  52 72 54 53  55 72 56 77  55 72 53 56  55 72 54 53  57 72 77 81  57 72 56 77  57 72 53 56  12 72 77 81  66 68 83 82  55 85 84 82  55 85 83 82  55 68 83 82  86 87 84 82  86 85 84 82  86 85 83 82  88 87 84 82  66 68 67 82  55 56 84 82  55 56 67 82  55 68 67 82  57 84 89 82  57 56 84 82  57 56 67 82  88 84 89 82  66 67 71 82  33 37 70 82  33 67 70 82  33 67 71 82  57 37 89 82  57 37 70 82  57 67 70 82  88 37 89 82  66 83 82 90  66 71 82 91  33 38 37 82  33 38 82 91  33 71 82 91  39 38 37 82  39 38 82 91  66 82 90 91  55 78 93 92  79 78 93 92  55 77 78 92  79 80 77 92  79 77 78 92  12 80 77 92  55 56 77 92  57 92 81 94  57 77 92 81  57 56 77 92  12 92 81 94  12 77 92 81  55 85 93 92  86 85 93 92  55 56 84 92  57 92 89 94  57 84 92 89  57 56 84 92  88 92 89 94  88 84 92 89  55 85 84 92  86 87 84 92  86 85 84 92  88 87 84 92  18 19 63 64  60 19 61 95  60 19 61 63  60 19 63 64  57 19 96 95  57 19 61 95  57 19 61 63  27 19 96 95  18 20 19 64  60 19 95 97  60 20 19 97  60 20 19 64  25 19 26 95  25 19 95 97  25 20 19 97  27 19 26 95  18 19 32 63  33 19 34 70  33 19 63 70  33 19 32 63  57 19 34 96  57 19 34 70  57 19 63 70  27 19 34 96  60 75 74 98  0 11 8 98  0 11 74 98  0 75 74 98  12 13 8 98  12 11 8 98  12 11 74 98  10 13 8 98  60 75 98 99  0 3 8 98  0 3 98 99  0 75 98 99  4 8 9 98  4 3 8 98  4 3 98 99  10 8 9 98  60 97 98 99  25 98 100 101  25 98 99 101  25 97 98 99  4 9 98 100  4 98 100 101  4 98 99 101  10 9 98 100  60 61 74 98  57 81 102 98  57 81 74 98  57 61 74 98  12 13 102 98  12 81 102 98  12 81 74 98  10 13 102 98  60 95 97 98  25 26 98 100  25 26 95 98  25 95 97 98  27 98 103 100  27 26 98 100  27 26 95 98  10 98 103 100  60 61 95 98  57 96 102 98  57 96 95 98  57 61 95 98  27 102 98 103  27 96 102 98  27 96 95 98  10 102 98 103  33 36 37 70  57 36 89 104  57 36 37 89  57 36 37 70  88 36 89 104  88 36 37 89  33 34 36 70  57 36 96 104  57 34 36 96  57 34 36 70  27 36 96 104  27 34 36 96  57 81 94 105  12 81 94 105  57 81 102 105  12 13 102 105  12 81 102 105  10 13 102 105  57 96 102 105  27 105 103 106  27 102 105 103  27 96 102 105  10 105 103 106  10 102 105 103  57 89 94 105  88 89 94 105  57 96 104 105  27 96 104 105  57 89 104 105  88 89 104 105  25 47 100 101  4 9 47 107  4 9 47 100  4 47 100 101  10 47 108 107  10 9 47 107  10 9 47 100  109 47 108 107  25 47 101 110  4 47 107 111  4 47 110 111  4 47 101 110  112 47 107 113  112 47 107 111  112 47 110 111  109 47 107 113  25 44 47 110  45 47 110 114  45 44 47 110  112 47 110 114  25 26 47 100  27 47 115 103  27 47 103 100  27 26 47 100  10 47 115 108  10 47 115 103  10 47 103 100  109 47 115 108  4 14 107 111  112 14 113 116  112 14 107 113  112 14 107 111  109 14 113 116  109 14 107 113  4 9 14 107  10 14 117 108  10 14 108 107  10 9 14 107  109 14 117 108  109 14 108 107  27 118 103 106  10 118 103 106  27 115 118 103  10 118 108 119  10 115 118 108  10 115 118 103  109 118 108 119  109 115 118 108  10 117 120 108  109 117 120 108  10 120 108 119  109 120 108 119  4 14 15 111  112 14 116 121  112 14 15 121  112 14 15 111  17 14 116 121  17 14 15 121  112 116 121 122  17 116 121 122  112 121 122 123  17 121 122 123  112 113 116 122  109 113 116 122  22 41 43 124  125 41 43 126  125 41 43 124  45 41 43 126  22 41 46 124  125 41 46 124  </DataArray>
<DataArray  type="UInt32"  Name="offsets"  format="ascii">4 8 12 16 20 24 28 32 36 40 44 48 52 56 60 64 68 72 76 80 84 88 92 96 100 104 108 112 116 120 124 128 132 136 140 144 148 152 156 160 164 168 172 176 180 184 188 192 196 200 204 208 212 216 220 224 228 232 236 240 244 248 252 256 260 264 268 272 276 280 284 288 292 296 300 304 308 312 316 320 324 328 332 336 340 344 348 352 356 360 364 368 372 376 380 384 388 392 396 400 404 408 412 416 420 424 428 432 436 440 444 448 452 456 460 464 468 472 476 480 484 488 492 496 500 504 508 512 516 520 524 528 532 536 540 544 548 552 556 560 564 568 572 576 580 584 588 592 596 600 604 608 612 616 620 624 628 632 636 640 644 648 652 656 660 664 668 672 676 680 684 688 692 696 700 704 708 712 716 720 724 728 732 736 740 744 748 752 756 760 764 768 772 776 780 784 788 792 796 800 804 808 812 816 820 824 828 832 836 840 844 848 852 856 860 864 868 872 876 880 884 888 892 896 900 904 908 912 916 920 924 928 932 936 940 944 948 952 956 960 964 968 972 976 980 984 988 992 996 1000 1004 1008 1012 1016 1020 1024 1028 1032 1036 1040 1044 1048 1052 1056 1060 1064 1068 1072 1076 1080 1084 1088 1092 1096 1100 1104 1108 1112 1116 1120 1124 1128 1132 1136 1140 1144 1148 1152 1156 1160 1164 1168 1172 1176 1180 1184 1188 1192 1196 1200 1204 1208 1212 1216 1220 1224 1228 1232 1236 1240 1244 1248 1252 1256 1260 1264 1268 1272 1276 1280 1284 1288 1292 1296 1300 1304 1308 1312 1316 1320 1324 1328 1332 1336 1340 1344 1348 1352 1356 1360 1364 1368 1372 1376 1380 1384 1388 1392 1396 1400 1404 1408 1412 1416 1420 1424 1428 1432 1436 1440 1444 1448 1452 1456 1460 1464 1468 1472 1476 1480 1484 1488 1492 1496 1500 1504 1508 1512 1516 1520 1524 1528 1532 1536 1540 1544 1548 1552 </DataArray>
<DataArray  type="UInt8"  Name="types"  format="ascii">10 10 10 10 10 10 10 10 10 10 10 10 10 10 10 10 10 10 10 10 10 10 10 10 10 10 10 10 10 10 10 10 10 10 10 10 10 10 10 10 10 10 10 10 10 10 10 10 10 10 10 10 10 10 10 10 10 10 10 10 10 10 10 10 10 10 10 10 10 10 10 10 10 10 10 10 10 10 10 10 10 10 10 10 10 10 10 10 10 10 10 10 10 10 10 10 10 10 10 10 10 10 10 10 10 10 10 10 10 10 10 10 10 10 10 10 10 10 10 10 10 10 10 10 10 10 10 10 10 10 10 10 10 10 10 10 10 10 10 10 10 10 10 10 10 10 10 10 10 10 10 10 10 10 10 10 10 10 10 10 10 10 10 10 10 10 10 10 10 10 10 10 10 10 10 10 10 10 10 10 10 10 10 10 10 10 10 10 10 10 10 10 10 10 10 10 10 10 10 10 10 10 10 10 10 10 10 10 10 10 10 10 10 10 10 10 10 10 10 10 10 10 10 10 10 10 10 10 10 10 10 10 10 10 10 10 10 10 10 10 10 10 10 10 10 10 10 10 10 10 10 10 10 10 10 10 10 10 10 10 10 10 10 10 10 10 10 10 10 10 10 10 10 10 10 10 10 10 10 10 10 10 10 10 10 10 10 10 10 10 10 10 10 10 10 10 10 10 10 10 10 10 10 10 10 10 10 10 10 10 10 10 10 10 10 10 10 10 10 10 10 10 10 10 10 10 10 10 10 10 10 10 10 10 10 10 10 10 10 10 10 10 10 10 10 10 10 10 10 10 10 10 10 10 10 10 10 10 10 10 10 10 10 10 10 10 10 10 10 10 10 10 10 10 10 10 10 10 10 10 10 10 10 10 10 10 10 10 </DataArray>
</Cells>
<PointData  Vectors="u"> 
<DataArray  type="Float64"  Name="u"  NumberOfComponents="3" format="ascii">1.9999999999911537e+02 1.3322085258212113e-10 4.8732801539894050e-11  1.9999999999889104e+02 -9.5092472804411882e-12 -1.6105275685680986e-11  1.9999999999890946e+02 -5.3315374817041622e-11 -1.5996089018978555e-11  1.9999999999915494e+02 -2.6935644176445566e-11 -1.0984200342603668e-11  1.9999999999911134e+02 1.4097664249139484e-10 2.4226178930522513e-11  1.9999999999892580e+02 -2.1005773964619757e-11 -2.6471508830665697e-11  1.9999999999890568e+02 7.0873856748656992e-12 2.1141752931992028e-12  1.9999999999870008e+02 1.2771535620854043e-10 2.7544187876705906e-11  1.9999999999910747e+02 -1.9643585226087956e-11 -2.0167348865468209e-11  1.9999999999916301e+02 -1.0479658589344819e-11 -2.4762374602069956e-11  1.9999999999910779e+02 2.5110487841998982e-11 2.3012572453230237e-11  1.9999999999911557e+02 -8.7312741853623353e-12 1.2408916170836353e-12  1.9999999999909775e+02 2.8221265136193796e-11 4.5639833364278377e-11  1.9999999999913479e+02 2.7032031932760139e-11 -1.1365668365446473e-11  1.9999999999892680e+02 -2.7335756526447273e-11 -2.1903626365019132e-11  1.9999999999892600e+02 -9.4302306273767883e-11 -9.8239129723169096e-12  1.9999999999868959e+02 1.4220364200862188e-11 -2.0393107567224413e-12  1.9999999999867748e+02 1.5088958265582336e-10 -4.2448821393036453e-13  2.0000000000016578e+02 1.8593187426355526e-10 3.6594386918651096e-13  1.9999999999976126e+02 -3.3843473627569547e-11 -1.7497509104716759e-11  1.9999999999971632e+02 -1.3156916778478358e-10 -2.0184670727722454e-11  1.9999999999995529e+02 2.7319338350690295e-12 4.9618384804610001e-12  2.0000000000015967e+02 1.9042710593116281e-10 2.4139800576660755e-11  1.9999999999974150e+02 -4.3208896300967437e-11 -7.4008948408891260e-11  1.9999999999974779e+02 -2.1877732133303987e-11 -2.1931272146589206e-11  1.9999999999958803e+02 1.5528823546275460e-10 8.2376702530398804e-12  1.9999999999953772e+02 -1.6439676424824415e-11 7.0907219641070993e-13  1.9999999999956876e+02 3.7213183483979042e-11 3.8106026738321808e-12  1.9999999999993605e+02 -2.0761199594239232e-11 -6.6814215744889596e-12  1.9999999999999832e+02 -2.9599100594637728e-11 -1.5914681407874127e-11  2.0000000000014461e+02 5.0067816878939618e-11 2.6005918064811002e-11  1.9999999999975108e+02 3.4783609884005108e-12 1.7039529583408398e-11  1.9999999999998846e+02 -1.7637602908311807e-11 5.2614635110754747e-11  2.0000000000014799e+02 3.7076247696939643e-11 -7.6602181500187707e-12  1.9999999999976379e+02 -4.6395820683610964e-11 1.8228746429362638e-11  2.0000000000001484e+02 -8.4814080829569124e-12 9.0793276784777096e-13  1.9999999999974358e+02 2.2512131432097473e-12 9.1718769386993365e-12  1.9999999999973073e+02 3.2721928524510986e-11 3.1629618308153229e-11  2.0000000000000853e+02 1.4032004544339661e-11 2.4397189061277776e-11  2.0000000000014396e+02 -2.4218891506757556e-11 2.2029667884065893e-11  1.9999999999988538e+02 6.4467026031696687e-12 -4.8596404602940502e-13  1.9999999999972829e+02 -2.2456182387385469e-11 -1.7840092160738966e-11  1.9999999999949350e+02 -3.1320684014805359e-11 -3.6801536671843861e-11  1.9999999999973750e+02 -9.0120994027804513e-11 6.4778255985285038e-12  1.9999999999954304e+02 1.5318493248994665e-11 -1.4425886459427422e-11  1.9999999999955978e+02 1.5067531231783872e-10 2.8902548291973633e-11  1.9999999999992116e+02 -1.6802622967007825e-11 -6.7690324052082782e-12  1.9999999999933502e+02 -3.5776201918965287e-11 -3.0972094472249494e-11  2.0000000000017118e+02 1.9134174015536277e-10 2.0515361496022976e-10  1.9999999999973429e+02 -1.8228515117377957e-11 -3.5523092283669376e-11  1.9999999999974887e+02 -6.3011554539174718e-11 -1.5351026547739838e-10  1.9999999999976225e+02 -4.0190671324370255e-11 1.9889569211616267e-11  1.9999999999955111e+02 1.6488809236086059e-10 1.7992731901587161e-10  1.9999999999954269e+02 -2.2891716936838253e-11 -1.5885837398079591e-11  1.9999999999954042e+02 -1.6527507235956655e-11 9.6726682903471945e-12  1.9999999999954929e+02 4.7269038826228808e-11 1.7575770837998841e-10  1.9999999999954829e+02 -1.2461478423594208e-11 -3.6091309919906139e-12  1.9999999999957183e+02 3.1826140389526197e-11 2.2850793125807624e-11  1.9999999999973235e+02 -7.6598731664529074e-11 -1.3514333468261105e-11  1.9999999999954898e+02 9.3188819044912667e-12 -1.0162186517645490e-11  1.9999999999956805e+02 1.5061341365344832e-10 2.8032770620832666e-11  1.9999999999954625e+02 -5.3897193556211283e-12 -4.9564679759561625e-12  2.0000000000004326e+02 -7.9012592965928865e-12 -1.1700327202891236e-11  1.9999999999976174e+02 -1.8593795807978549e-11 7.5441934104797010e-12  1.9999999999976853e+02 -4.7791043196971060e-12 -7.2131829975023313e-12  2.0000000000001339e+02 -2.4483290258015283e-11 1.7386136416245336e-11  2.0000000000014819e+02 5.0859072725383404e-11 1.9232146192632095e-10  1.9999999999976205e+02 -2.5293861337552194e-11 -3.8743247357956517e-11  1.9999999999975660e+02 8.6607198604337551e-12 1.6802994011561007e-12  1.9999999999989538e+02 -2.0033101204718352e-11 -3.2237877004439199e-11  1.9999999999975452e+02 2.9858274338103296e-11 -1.7087153349621641e-11  2.0000000000002530e+02 -1.2657396949705785e-11 -6.9191768333523013e-12  1.9999999999931006e+02 -1.5152048917199176e-11 -1.9957720746960912e-11  1.9999999999931805e+02 -5.4898488468735257e-11 -2.6106817720059000e-12  1.9999999999931160e+02 -1.9824426273465896e-11 3.0570292422000256e-11  1.9999999999932152e+02 4.7877647262976437e-12 -6.7312206366420154e-12  1.9999999999931535e+02 -5.4327360486465380e-11 -1.4208119380821530e-10  1.9999999999931916e+02 -5.6585375944689442e-12 -1.6977414097165306e-11  1.9999999999932885e+02 2.7778774639767736e-11 2.5462467877443413e-11  1.9999999999910938e+02 2.7926713982050110e-11 1.7267418335443834e-10  1.9999999999913791e+02 2.5925917275671914e-11 -8.3993558969366137e-12  1.9999999999933212e+02 3.1576183196692101e-11 -2.2208949109493252e-11  1.9999999999974759e+02 3.2305317423803234e-12 -1.7855789838169826e-11  1.9999999999977857e+02 -5.3913826059149742e-12 -1.2586972737714453e-10  1.9999999999955327e+02 9.8471370767989816e-12 -5.5080799122118381e-11  1.9999999999955315e+02 9.6090510584226579e-12 1.1578701951047866e-12  1.9999999999952925e+02 -1.0931371332960716e-11 1.9214090873201230e-10  1.9999999999957944e+02 6.1521402760831953e-12 -3.3477698724897351e-11  1.9999999999955281e+02 -1.5455464133181933e-11 3.2935319714997722e-11  1.9999999999954863e+02 1.0539648611160370e-11 -2.5259325400937141e-11  2.0000000000003240e+02 -7.3501693970084303e-12 -1.4919697291995420e-11  1.9999999999987216e+02 -4.9173551731790419e-12 -3.0711576087925753e-11  1.9999999999930108e+02 -3.8647645176306745e-12 -1.9002836746508280e-11  1.9999999999931950e+02 -2.0507823530372016e-11 -1.2163702191223645e-10  1.9999999999931595e+02 3.9847346422194390e-12 1.2119579906277804e-11  1.9999999999954329e+02 -3.4057809151596666e-12 -2.2230512959307647e-11  1.9999999999951683e+02 3.0176887052738398e-11 -2.0448050903665222e-11  1.9999999999955023e+02 2.5814927475853532e-11 -9.3783623055238319e-12  1.9999999999933064e+02 -1.3650257766165986e-11 -1.6282857951801012e-11  1.9999999999931742e+02 -1.1211180340498608e-10 2.6076138105202028e-12  1.9999999999934369e+02 -3.3210222220815011e-11 -9.6439595773346355e-12  1.9999999999934016e+02 2.7896835840047288e-11 7.9351748851329055e-12  1.9999999999932916e+02 1.6905248602193005e-11 -5.1122079148056048e-11  1.9999999999934778e+02 2.0821367329233338e-11 -1.7895304383629093e-12  1.9999999999956563e+02 2.8003835308198189e-12 -2.5477981874006686e-11  1.9999999999932564e+02 5.3824044082503417e-12 -2.0579008538776260e-11  1.9999999999935574e+02 -4.7092176233243605e-12 -1.2633215688921550e-11  1.9999999999913746e+02 -3.0084483538954463e-11 -1.5008560533667296e-11  1.9999999999911560e+02 1.6103955047540228e-11 -2.2920479986291587e-11  1.9999999999912075e+02 2.8698876717701787e-11 1.3828596237638986e-11  1.9999999999933775e+02 -9.4486908245291144e-11 -1.3768803307287930e-11  1.9999999999911711e+02 1.4757988542578312e-11 -1.6406909663141508e-11  1.9999999999911830e+02 1.3028731653966698e-10 1.7066231154047998e-11  1.9999999999910062e+02 -2.1794669194691411e-11 -4.2900073933556917e-11  1.9999999999934033e+02 1.3080660816385451e-11 -2.6710613062945549e-11  1.9999999999933792e+02 -5.7773185220877374e-11 -2.5351422215715377e-11  1.9999999999892640e+02 -9.5641852885826146e-12 -1.6894577503296255e-11  1.9999999999892856e+02 -4.1964916263183245e-11 -2.4864519646055497e-11  1.9999999999932373e+02 -2.2351537819132695e-11 -1.2539141413269991e-11  1.9999999999912339e+02 -1.1307432563290135e-11 -1.5583921692757257e-11  1.9999999999893146e+02 -1.8051313957279673e-11 -4.1006801182137989e-12  1.9999999999891796e+02 2.7423502829624866e-11 -4.3961623688857405e-11  1.9999999999892319e+02 -2.8560312833049787e-11 -1.2820764742383033e-11  1.9999999999890628e+02 -9.9891397930537892e-11 -1.6418809386577748e-11  2.0000000000001577e+02 1.5023571406640802e-12 7.0901150882197027e-13  2.0000000000013290e+02 1.5724527530105173e-10 2.4760021879717279e-11  1.9999999999975037e+02 -1.4080224607801095e-11 -2.3830932256183815e-11  </DataArray> 
</PointData> 
</Piece>
</UnstructuredGrid>
</VTKFile>